V -t * -v 1.0a5 -a 0
A -t * -n 1 -p 0 -o 0x7fffffff -c 30 -a 1
A -t * -h 1 -m 1073741823 -s 0
c -t * -i 35 -n cyan
c -t * -i 36 -n green
c -t * -i 37 -n orange
c -t * -i 38 -n black
c -t * -i 39 -n yellow
c -t * -i 40 -n purple
c -t * -i 41 -n gold
c -t * -i 42 -n chocolate
c -t * -i 43 -n brown
c -t * -i 44 -n tan
c -t * -i 45 -n black
c -t * -i 46 -n pink
c -t * -i 47 -n magenta
c -t * -i 48 -n violet
c -t * -i 10 -n chocolate
c -t * -i 11 -n brown
c -t * -i 12 -n tan
c -t * -i 13 -n black
c -t * -i 14 -n pink
c -t * -i 15 -n magenta
c -t * -i 16 -n violet
c -t * -i 17 -n red
c -t * -i 1 -n red
c -t * -i 18 -n blue
c -t * -i 2 -n blue
c -t * -i 19 -n cyan
c -t * -i 20 -n green
c -t * -i 3 -n cyan
c -t * -i 21 -n orange
c -t * -i 4 -n green
c -t * -i 22 -n black
c -t * -i 5 -n orange
c -t * -i 23 -n yellow
c -t * -i 6 -n black
c -t * -i 24 -n purple
c -t * -i 7 -n yellow
c -t * -i 25 -n gold
c -t * -i 8 -n purple
c -t * -i 26 -n chocolate
c -t * -i 9 -n gold
c -t * -i 27 -n brown
c -t * -i 28 -n tan
c -t * -i 29 -n black
c -t * -i 30 -n pink
c -t * -i 31 -n magenta
c -t * -i 32 -n violet
c -t * -i 33 -n red
c -t * -i 34 -n blue
n -t * -a 17 -s 17 -S UP -v circle -c black -i black
n -t * -a 0 -s 0 -S UP -v circle -c black -i black
n -t * -a 18 -s 18 -S UP -v circle -c black -i black
n -t * -a 1 -s 1 -S UP -v circle -c black -i black
n -t * -a 20 -s 20 -S UP -v circle -c black -i black
n -t * -a 19 -s 19 -S UP -v circle -c black -i black
n -t * -a 2 -s 2 -S UP -v circle -c black -i black
n -t * -a 21 -s 21 -S UP -v circle -c black -i black
n -t * -a 3 -s 3 -S UP -v circle -c black -i black
n -t * -a 22 -s 22 -S UP -v circle -c black -i black
n -t * -a 4 -s 4 -S UP -v circle -c black -i black
n -t * -a 23 -s 23 -S UP -v circle -c black -i black
n -t * -a 5 -s 5 -S UP -v circle -c black -i black
n -t * -a 24 -s 24 -S UP -v circle -c black -i black
n -t * -a 6 -s 6 -S UP -v circle -c black -i black
n -t * -a 25 -s 25 -S UP -v circle -c black -i black
n -t * -a 7 -s 7 -S UP -v circle -c black -i black
n -t * -a 26 -s 26 -S UP -v circle -c black -i black
n -t * -a 8 -s 8 -S UP -v circle -c black -i black
n -t * -a 27 -s 27 -S UP -v circle -c black -i black
n -t * -a 9 -s 9 -S UP -v circle -c black -i black
n -t * -a 10 -s 10 -S UP -v circle -c black -i black
n -t * -a 28 -s 28 -S UP -v circle -c black -i black
n -t * -a 11 -s 11 -S UP -v circle -c black -i black
n -t * -a 30 -s 30 -S UP -v circle -c black -i black
n -t * -a 29 -s 29 -S UP -v circle -c black -i black
n -t * -a 12 -s 12 -S UP -v circle -c black -i black
n -t * -a 31 -s 31 -S UP -v circle -c black -i black
n -t * -a 13 -s 13 -S UP -v circle -c black -i black
n -t * -a 32 -s 32 -S UP -v circle -c black -i black
n -t * -a 14 -s 14 -S UP -v circle -c black -i black
n -t * -a 33 -s 33 -S UP -v circle -c black -i black
n -t * -a 15 -s 15 -S UP -v circle -c black -i black
n -t * -a 16 -s 16 -S UP -v circle -c black -i black
l -t * -s 2 -d 0 -S UP -r 1000000000 -D 2.4999999999999998e-05 -c black
l -t * -s 3 -d 0 -S UP -r 1000000000 -D 2.4999999999999998e-05 -c black
l -t * -s 4 -d 0 -S UP -r 1000000000 -D 2.4999999999999998e-05 -c black
l -t * -s 5 -d 0 -S UP -r 1000000000 -D 2.4999999999999998e-05 -c black
l -t * -s 6 -d 0 -S UP -r 1000000000 -D 2.4999999999999998e-05 -c black
l -t * -s 7 -d 0 -S UP -r 1000000000 -D 2.4999999999999998e-05 -c black
l -t * -s 8 -d 0 -S UP -r 1000000000 -D 2.4999999999999998e-05 -c black
l -t * -s 9 -d 0 -S UP -r 1000000000 -D 2.4999999999999998e-05 -c black
l -t * -s 10 -d 0 -S UP -r 1000000000 -D 2.4999999999999998e-05 -c black
l -t * -s 11 -d 0 -S UP -r 1000000000 -D 2.4999999999999998e-05 -c black
l -t * -s 12 -d 0 -S UP -r 1000000000 -D 2.4999999999999998e-05 -c black
l -t * -s 13 -d 0 -S UP -r 1000000000 -D 2.4999999999999998e-05 -c black
l -t * -s 14 -d 0 -S UP -r 1000000000 -D 2.4999999999999998e-05 -c black
l -t * -s 15 -d 0 -S UP -r 1000000000 -D 2.4999999999999998e-05 -c black
l -t * -s 16 -d 0 -S UP -r 1000000000 -D 2.4999999999999998e-05 -c black
l -t * -s 17 -d 0 -S UP -r 1000000000 -D 2.4999999999999998e-05 -c black
l -t * -s 18 -d 0 -S UP -r 1000000000 -D 2.4999999999999998e-05 -c black
l -t * -s 19 -d 0 -S UP -r 1000000000 -D 2.4999999999999998e-05 -c black
l -t * -s 20 -d 0 -S UP -r 1000000000 -D 2.4999999999999998e-05 -c black
l -t * -s 21 -d 0 -S UP -r 1000000000 -D 2.4999999999999998e-05 -c black
l -t * -s 22 -d 0 -S UP -r 1000000000 -D 2.4999999999999998e-05 -c black
l -t * -s 23 -d 0 -S UP -r 1000000000 -D 2.4999999999999998e-05 -c black
l -t * -s 24 -d 0 -S UP -r 1000000000 -D 2.4999999999999998e-05 -c black
l -t * -s 25 -d 0 -S UP -r 1000000000 -D 2.4999999999999998e-05 -c black
l -t * -s 26 -d 0 -S UP -r 1000000000 -D 2.4999999999999998e-05 -c black
l -t * -s 27 -d 0 -S UP -r 1000000000 -D 2.4999999999999998e-05 -c black
l -t * -s 28 -d 0 -S UP -r 1000000000 -D 2.4999999999999998e-05 -c black
l -t * -s 29 -d 0 -S UP -r 1000000000 -D 2.4999999999999998e-05 -c black
l -t * -s 30 -d 0 -S UP -r 1000000000 -D 2.4999999999999998e-05 -c black
l -t * -s 31 -d 0 -S UP -r 1000000000 -D 2.4999999999999998e-05 -c black
l -t * -s 32 -d 0 -S UP -r 1000000000 -D 2.4999999999999998e-05 -c black
l -t * -s 33 -d 0 -S UP -r 1000000000 -D 2.4999999999999998e-05 -c black
l -t * -s 0 -d 1 -S UP -r 1000000000 -D 2.4999999999999998e-05 -c black
q -t * -s 0 -d 1 -a 0.5
q -t * -s 1 -d 0 -a 0.5
+ -t 0 -s 1 -d 0 -p tcp -e 40 -c 0 -i 0 -a 0 -x {1.0 2.0 0 ------- null}
- -t 0 -s 1 -d 0 -p tcp -e 40 -c 0 -i 0 -a 0 -x {1.0 2.0 0 ------- null}
h -t 0 -s 1 -d 0 -p tcp -e 40 -c 0 -i 0 -a 0 -x {1.0 2.0 -1 ------- null}
v -t 0 -e sim_annotation 0 1 0 Start Requester 0
+ -t 0 -s 1 -d 0 -p tcp -e 40 -c 1 -i 1 -a 1 -x {1.1 3.0 0 ------- null}
v -t 0 -e sim_annotation 0 2 0 Start Requester 1
+ -t 0 -s 1 -d 0 -p tcp -e 40 -c 2 -i 2 -a 2 -x {1.2 4.0 0 ------- null}
v -t 0 -e sim_annotation 0 3 0 Start Requester 2
+ -t 0 -s 1 -d 0 -p tcp -e 40 -c 3 -i 3 -a 3 -x {1.3 5.0 0 ------- null}
v -t 0 -e sim_annotation 0 4 0 Start Requester 3
+ -t 0 -s 1 -d 0 -p tcp -e 40 -c 4 -i 4 -a 4 -x {1.4 6.0 0 ------- null}
v -t 0 -e sim_annotation 0 5 0 Start Requester 4
+ -t 0 -s 1 -d 0 -p tcp -e 40 -c 5 -i 5 -a 5 -x {1.5 7.0 0 ------- null}
v -t 0 -e sim_annotation 0 6 0 Start Requester 5
+ -t 0 -s 1 -d 0 -p tcp -e 40 -c 6 -i 6 -a 6 -x {1.6 8.0 0 ------- null}
v -t 0 -e sim_annotation 0 7 0 Start Requester 6
+ -t 0 -s 1 -d 0 -p tcp -e 40 -c 7 -i 7 -a 7 -x {1.7 9.0 0 ------- null}
v -t 0 -e sim_annotation 0 8 0 Start Requester 7
+ -t 0 -s 1 -d 0 -p tcp -e 40 -c 8 -i 8 -a 8 -x {1.8 10.0 0 ------- null}
v -t 0 -e sim_annotation 0 9 0 Start Requester 8
+ -t 0 -s 1 -d 0 -p tcp -e 40 -c 9 -i 9 -a 9 -x {1.9 11.0 0 ------- null}
v -t 0 -e sim_annotation 0 10 0 Start Requester 9
+ -t 0 -s 1 -d 0 -p tcp -e 40 -c 10 -i 10 -a 10 -x {1.10 12.0 0 ------- null}
v -t 0 -e sim_annotation 0 11 0 Start Requester 10
+ -t 0 -s 1 -d 0 -p tcp -e 40 -c 11 -i 11 -a 11 -x {1.11 13.0 0 ------- null}
v -t 0 -e sim_annotation 0 12 0 Start Requester 11
+ -t 0 -s 1 -d 0 -p tcp -e 40 -c 12 -i 12 -a 12 -x {1.12 14.0 0 ------- null}
v -t 0 -e sim_annotation 0 13 0 Start Requester 12
+ -t 0 -s 1 -d 0 -p tcp -e 40 -c 13 -i 13 -a 13 -x {1.13 15.0 0 ------- null}
v -t 0 -e sim_annotation 0 14 0 Start Requester 13
+ -t 0 -s 1 -d 0 -p tcp -e 40 -c 14 -i 14 -a 14 -x {1.14 16.0 0 ------- null}
v -t 0 -e sim_annotation 0 15 0 Start Requester 14
+ -t 0 -s 1 -d 0 -p tcp -e 40 -c 15 -i 15 -a 15 -x {1.15 17.0 0 ------- null}
v -t 0 -e sim_annotation 0 16 0 Start Requester 15
+ -t 0 -s 1 -d 0 -p tcp -e 40 -c 16 -i 16 -a 16 -x {1.16 18.0 0 ------- null}
v -t 0 -e sim_annotation 0 17 0 Start Requester 16
+ -t 0 -s 1 -d 0 -p tcp -e 40 -c 17 -i 17 -a 17 -x {1.17 19.0 0 ------- null}
v -t 0 -e sim_annotation 0 18 0 Start Requester 17
+ -t 0 -s 1 -d 0 -p tcp -e 40 -c 18 -i 18 -a 18 -x {1.18 20.0 0 ------- null}
v -t 0 -e sim_annotation 0 19 0 Start Requester 18
+ -t 0 -s 1 -d 0 -p tcp -e 40 -c 19 -i 19 -a 19 -x {1.19 21.0 0 ------- null}
v -t 0 -e sim_annotation 0 20 0 Start Requester 19
+ -t 0 -s 1 -d 0 -p tcp -e 40 -c 20 -i 20 -a 20 -x {1.20 22.0 0 ------- null}
v -t 0 -e sim_annotation 0 21 0 Start Requester 20
+ -t 0 -s 1 -d 0 -p tcp -e 40 -c 21 -i 21 -a 21 -x {1.21 23.0 0 ------- null}
v -t 0 -e sim_annotation 0 22 0 Start Requester 21
+ -t 0 -s 1 -d 0 -p tcp -e 40 -c 22 -i 22 -a 22 -x {1.22 24.0 0 ------- null}
v -t 0 -e sim_annotation 0 23 0 Start Requester 22
+ -t 0 -s 1 -d 0 -p tcp -e 40 -c 23 -i 23 -a 23 -x {1.23 25.0 0 ------- null}
v -t 0 -e sim_annotation 0 24 0 Start Requester 23
+ -t 0 -s 1 -d 0 -p tcp -e 40 -c 24 -i 24 -a 24 -x {1.24 26.0 0 ------- null}
v -t 0 -e sim_annotation 0 25 0 Start Requester 24
+ -t 0 -s 1 -d 0 -p tcp -e 40 -c 25 -i 25 -a 25 -x {1.25 27.0 0 ------- null}
v -t 0 -e sim_annotation 0 26 0 Start Requester 25
+ -t 0 -s 1 -d 0 -p tcp -e 40 -c 26 -i 26 -a 26 -x {1.26 28.0 0 ------- null}
v -t 0 -e sim_annotation 0 27 0 Start Requester 26
+ -t 0 -s 1 -d 0 -p tcp -e 40 -c 27 -i 27 -a 27 -x {1.27 29.0 0 ------- null}
v -t 0 -e sim_annotation 0 28 0 Start Requester 27
+ -t 0 -s 1 -d 0 -p tcp -e 40 -c 28 -i 28 -a 28 -x {1.28 30.0 0 ------- null}
v -t 0 -e sim_annotation 0 29 0 Start Requester 28
+ -t 0 -s 1 -d 0 -p tcp -e 40 -c 29 -i 29 -a 29 -x {1.29 31.0 0 ------- null}
v -t 0 -e sim_annotation 0 30 0 Start Requester 29
+ -t 0 -s 1 -d 0 -p tcp -e 40 -c 30 -i 30 -a 30 -x {1.30 32.0 0 ------- null}
v -t 0 -e sim_annotation 0 31 0 Start Requester 30
+ -t 0 -s 1 -d 0 -p tcp -e 40 -c 31 -i 31 -a 31 -x {1.31 33.0 0 ------- null}
v -t 0 -e sim_annotation 0 32 0 Start Requester 31
- -t 3.2e-07 -s 1 -d 0 -p tcp -e 40 -c 1 -i 1 -a 1 -x {1.1 3.0 0 ------- null}
h -t 3.2e-07 -s 1 -d 0 -p tcp -e 40 -c 1 -i 1 -a 1 -x {1.1 3.0 -1 ------- null}
- -t 6.4e-07 -s 1 -d 0 -p tcp -e 40 -c 2 -i 2 -a 2 -x {1.2 4.0 0 ------- null}
h -t 6.4e-07 -s 1 -d 0 -p tcp -e 40 -c 2 -i 2 -a 2 -x {1.2 4.0 -1 ------- null}
- -t 9.6e-07 -s 1 -d 0 -p tcp -e 40 -c 3 -i 3 -a 3 -x {1.3 5.0 0 ------- null}
h -t 9.6e-07 -s 1 -d 0 -p tcp -e 40 -c 3 -i 3 -a 3 -x {1.3 5.0 -1 ------- null}
- -t 1.28e-06 -s 1 -d 0 -p tcp -e 40 -c 4 -i 4 -a 4 -x {1.4 6.0 0 ------- null}
h -t 1.28e-06 -s 1 -d 0 -p tcp -e 40 -c 4 -i 4 -a 4 -x {1.4 6.0 -1 ------- null}
- -t 1.6e-06 -s 1 -d 0 -p tcp -e 40 -c 5 -i 5 -a 5 -x {1.5 7.0 0 ------- null}
h -t 1.6e-06 -s 1 -d 0 -p tcp -e 40 -c 5 -i 5 -a 5 -x {1.5 7.0 -1 ------- null}
- -t 1.92e-06 -s 1 -d 0 -p tcp -e 40 -c 6 -i 6 -a 6 -x {1.6 8.0 0 ------- null}
h -t 1.92e-06 -s 1 -d 0 -p tcp -e 40 -c 6 -i 6 -a 6 -x {1.6 8.0 -1 ------- null}
- -t 2.24e-06 -s 1 -d 0 -p tcp -e 40 -c 7 -i 7 -a 7 -x {1.7 9.0 0 ------- null}
h -t 2.24e-06 -s 1 -d 0 -p tcp -e 40 -c 7 -i 7 -a 7 -x {1.7 9.0 -1 ------- null}
- -t 2.56e-06 -s 1 -d 0 -p tcp -e 40 -c 8 -i 8 -a 8 -x {1.8 10.0 0 ------- null}
h -t 2.56e-06 -s 1 -d 0 -p tcp -e 40 -c 8 -i 8 -a 8 -x {1.8 10.0 -1 ------- null}
- -t 2.88e-06 -s 1 -d 0 -p tcp -e 40 -c 9 -i 9 -a 9 -x {1.9 11.0 0 ------- null}
h -t 2.88e-06 -s 1 -d 0 -p tcp -e 40 -c 9 -i 9 -a 9 -x {1.9 11.0 -1 ------- null}
- -t 3.2e-06 -s 1 -d 0 -p tcp -e 40 -c 10 -i 10 -a 10 -x {1.10 12.0 0 ------- null}
h -t 3.2e-06 -s 1 -d 0 -p tcp -e 40 -c 10 -i 10 -a 10 -x {1.10 12.0 -1 ------- null}
- -t 3.52e-06 -s 1 -d 0 -p tcp -e 40 -c 11 -i 11 -a 11 -x {1.11 13.0 0 ------- null}
h -t 3.52e-06 -s 1 -d 0 -p tcp -e 40 -c 11 -i 11 -a 11 -x {1.11 13.0 -1 ------- null}
- -t 3.84e-06 -s 1 -d 0 -p tcp -e 40 -c 12 -i 12 -a 12 -x {1.12 14.0 0 ------- null}
h -t 3.84e-06 -s 1 -d 0 -p tcp -e 40 -c 12 -i 12 -a 12 -x {1.12 14.0 -1 ------- null}
- -t 4.16e-06 -s 1 -d 0 -p tcp -e 40 -c 13 -i 13 -a 13 -x {1.13 15.0 0 ------- null}
h -t 4.16e-06 -s 1 -d 0 -p tcp -e 40 -c 13 -i 13 -a 13 -x {1.13 15.0 -1 ------- null}
- -t 4.48e-06 -s 1 -d 0 -p tcp -e 40 -c 14 -i 14 -a 14 -x {1.14 16.0 0 ------- null}
h -t 4.48e-06 -s 1 -d 0 -p tcp -e 40 -c 14 -i 14 -a 14 -x {1.14 16.0 -1 ------- null}
- -t 4.8e-06 -s 1 -d 0 -p tcp -e 40 -c 15 -i 15 -a 15 -x {1.15 17.0 0 ------- null}
h -t 4.8e-06 -s 1 -d 0 -p tcp -e 40 -c 15 -i 15 -a 15 -x {1.15 17.0 -1 ------- null}
- -t 5.12e-06 -s 1 -d 0 -p tcp -e 40 -c 16 -i 16 -a 16 -x {1.16 18.0 0 ------- null}
h -t 5.12e-06 -s 1 -d 0 -p tcp -e 40 -c 16 -i 16 -a 16 -x {1.16 18.0 -1 ------- null}
- -t 5.44e-06 -s 1 -d 0 -p tcp -e 40 -c 17 -i 17 -a 17 -x {1.17 19.0 0 ------- null}
h -t 5.44e-06 -s 1 -d 0 -p tcp -e 40 -c 17 -i 17 -a 17 -x {1.17 19.0 -1 ------- null}
- -t 5.76e-06 -s 1 -d 0 -p tcp -e 40 -c 18 -i 18 -a 18 -x {1.18 20.0 0 ------- null}
h -t 5.76e-06 -s 1 -d 0 -p tcp -e 40 -c 18 -i 18 -a 18 -x {1.18 20.0 -1 ------- null}
- -t 6.08e-06 -s 1 -d 0 -p tcp -e 40 -c 19 -i 19 -a 19 -x {1.19 21.0 0 ------- null}
h -t 6.08e-06 -s 1 -d 0 -p tcp -e 40 -c 19 -i 19 -a 19 -x {1.19 21.0 -1 ------- null}
- -t 6.4e-06 -s 1 -d 0 -p tcp -e 40 -c 20 -i 20 -a 20 -x {1.20 22.0 0 ------- null}
h -t 6.4e-06 -s 1 -d 0 -p tcp -e 40 -c 20 -i 20 -a 20 -x {1.20 22.0 -1 ------- null}
- -t 6.72e-06 -s 1 -d 0 -p tcp -e 40 -c 21 -i 21 -a 21 -x {1.21 23.0 0 ------- null}
h -t 6.72e-06 -s 1 -d 0 -p tcp -e 40 -c 21 -i 21 -a 21 -x {1.21 23.0 -1 ------- null}
- -t 7.04e-06 -s 1 -d 0 -p tcp -e 40 -c 22 -i 22 -a 22 -x {1.22 24.0 0 ------- null}
h -t 7.04e-06 -s 1 -d 0 -p tcp -e 40 -c 22 -i 22 -a 22 -x {1.22 24.0 -1 ------- null}
- -t 7.36e-06 -s 1 -d 0 -p tcp -e 40 -c 23 -i 23 -a 23 -x {1.23 25.0 0 ------- null}
h -t 7.36e-06 -s 1 -d 0 -p tcp -e 40 -c 23 -i 23 -a 23 -x {1.23 25.0 -1 ------- null}
- -t 7.68e-06 -s 1 -d 0 -p tcp -e 40 -c 24 -i 24 -a 24 -x {1.24 26.0 0 ------- null}
h -t 7.68e-06 -s 1 -d 0 -p tcp -e 40 -c 24 -i 24 -a 24 -x {1.24 26.0 -1 ------- null}
- -t 8e-06 -s 1 -d 0 -p tcp -e 40 -c 25 -i 25 -a 25 -x {1.25 27.0 0 ------- null}
h -t 8e-06 -s 1 -d 0 -p tcp -e 40 -c 25 -i 25 -a 25 -x {1.25 27.0 -1 ------- null}
- -t 8.32e-06 -s 1 -d 0 -p tcp -e 40 -c 26 -i 26 -a 26 -x {1.26 28.0 0 ------- null}
h -t 8.32e-06 -s 1 -d 0 -p tcp -e 40 -c 26 -i 26 -a 26 -x {1.26 28.0 -1 ------- null}
- -t 8.64e-06 -s 1 -d 0 -p tcp -e 40 -c 27 -i 27 -a 27 -x {1.27 29.0 0 ------- null}
h -t 8.64e-06 -s 1 -d 0 -p tcp -e 40 -c 27 -i 27 -a 27 -x {1.27 29.0 -1 ------- null}
- -t 8.96e-06 -s 1 -d 0 -p tcp -e 40 -c 28 -i 28 -a 28 -x {1.28 30.0 0 ------- null}
h -t 8.96e-06 -s 1 -d 0 -p tcp -e 40 -c 28 -i 28 -a 28 -x {1.28 30.0 -1 ------- null}
- -t 9.28e-06 -s 1 -d 0 -p tcp -e 40 -c 29 -i 29 -a 29 -x {1.29 31.0 0 ------- null}
h -t 9.28e-06 -s 1 -d 0 -p tcp -e 40 -c 29 -i 29 -a 29 -x {1.29 31.0 -1 ------- null}
- -t 9.6e-06 -s 1 -d 0 -p tcp -e 40 -c 30 -i 30 -a 30 -x {1.30 32.0 0 ------- null}
h -t 9.6e-06 -s 1 -d 0 -p tcp -e 40 -c 30 -i 30 -a 30 -x {1.30 32.0 -1 ------- null}
- -t 9.92e-06 -s 1 -d 0 -p tcp -e 40 -c 31 -i 31 -a 31 -x {1.31 33.0 0 ------- null}
h -t 9.92e-06 -s 1 -d 0 -p tcp -e 40 -c 31 -i 31 -a 31 -x {1.31 33.0 -1 ------- null}
r -t 2.532e-05 -s 1 -d 0 -p tcp -e 40 -c 0 -i 0 -a 0 -x {1.0 2.0 0 ------- null}
+ -t 2.532e-05 -s 0 -d 2 -p tcp -e 40 -c 0 -i 0 -a 0 -x {1.0 2.0 0 ------- null}
- -t 2.532e-05 -s 0 -d 2 -p tcp -e 40 -c 0 -i 0 -a 0 -x {1.0 2.0 0 ------- null}
h -t 2.532e-05 -s 0 -d 2 -p tcp -e 40 -c 0 -i 0 -a 0 -x {1.0 2.0 -1 ------- null}
r -t 2.564e-05 -s 1 -d 0 -p tcp -e 40 -c 1 -i 1 -a 1 -x {1.1 3.0 0 ------- null}
+ -t 2.564e-05 -s 0 -d 3 -p tcp -e 40 -c 1 -i 1 -a 1 -x {1.1 3.0 0 ------- null}
- -t 2.564e-05 -s 0 -d 3 -p tcp -e 40 -c 1 -i 1 -a 1 -x {1.1 3.0 0 ------- null}
h -t 2.564e-05 -s 0 -d 3 -p tcp -e 40 -c 1 -i 1 -a 1 -x {1.1 3.0 -1 ------- null}
r -t 2.596e-05 -s 1 -d 0 -p tcp -e 40 -c 2 -i 2 -a 2 -x {1.2 4.0 0 ------- null}
+ -t 2.596e-05 -s 0 -d 4 -p tcp -e 40 -c 2 -i 2 -a 2 -x {1.2 4.0 0 ------- null}
- -t 2.596e-05 -s 0 -d 4 -p tcp -e 40 -c 2 -i 2 -a 2 -x {1.2 4.0 0 ------- null}
h -t 2.596e-05 -s 0 -d 4 -p tcp -e 40 -c 2 -i 2 -a 2 -x {1.2 4.0 -1 ------- null}
r -t 2.628e-05 -s 1 -d 0 -p tcp -e 40 -c 3 -i 3 -a 3 -x {1.3 5.0 0 ------- null}
+ -t 2.628e-05 -s 0 -d 5 -p tcp -e 40 -c 3 -i 3 -a 3 -x {1.3 5.0 0 ------- null}
- -t 2.628e-05 -s 0 -d 5 -p tcp -e 40 -c 3 -i 3 -a 3 -x {1.3 5.0 0 ------- null}
h -t 2.628e-05 -s 0 -d 5 -p tcp -e 40 -c 3 -i 3 -a 3 -x {1.3 5.0 -1 ------- null}
r -t 2.66e-05 -s 1 -d 0 -p tcp -e 40 -c 4 -i 4 -a 4 -x {1.4 6.0 0 ------- null}
+ -t 2.66e-05 -s 0 -d 6 -p tcp -e 40 -c 4 -i 4 -a 4 -x {1.4 6.0 0 ------- null}
- -t 2.66e-05 -s 0 -d 6 -p tcp -e 40 -c 4 -i 4 -a 4 -x {1.4 6.0 0 ------- null}
h -t 2.66e-05 -s 0 -d 6 -p tcp -e 40 -c 4 -i 4 -a 4 -x {1.4 6.0 -1 ------- null}
r -t 2.692e-05 -s 1 -d 0 -p tcp -e 40 -c 5 -i 5 -a 5 -x {1.5 7.0 0 ------- null}
+ -t 2.692e-05 -s 0 -d 7 -p tcp -e 40 -c 5 -i 5 -a 5 -x {1.5 7.0 0 ------- null}
- -t 2.692e-05 -s 0 -d 7 -p tcp -e 40 -c 5 -i 5 -a 5 -x {1.5 7.0 0 ------- null}
h -t 2.692e-05 -s 0 -d 7 -p tcp -e 40 -c 5 -i 5 -a 5 -x {1.5 7.0 -1 ------- null}
r -t 2.724e-05 -s 1 -d 0 -p tcp -e 40 -c 6 -i 6 -a 6 -x {1.6 8.0 0 ------- null}
+ -t 2.724e-05 -s 0 -d 8 -p tcp -e 40 -c 6 -i 6 -a 6 -x {1.6 8.0 0 ------- null}
- -t 2.724e-05 -s 0 -d 8 -p tcp -e 40 -c 6 -i 6 -a 6 -x {1.6 8.0 0 ------- null}
h -t 2.724e-05 -s 0 -d 8 -p tcp -e 40 -c 6 -i 6 -a 6 -x {1.6 8.0 -1 ------- null}
r -t 2.756e-05 -s 1 -d 0 -p tcp -e 40 -c 7 -i 7 -a 7 -x {1.7 9.0 0 ------- null}
+ -t 2.756e-05 -s 0 -d 9 -p tcp -e 40 -c 7 -i 7 -a 7 -x {1.7 9.0 0 ------- null}
- -t 2.756e-05 -s 0 -d 9 -p tcp -e 40 -c 7 -i 7 -a 7 -x {1.7 9.0 0 ------- null}
h -t 2.756e-05 -s 0 -d 9 -p tcp -e 40 -c 7 -i 7 -a 7 -x {1.7 9.0 -1 ------- null}
r -t 2.788e-05 -s 1 -d 0 -p tcp -e 40 -c 8 -i 8 -a 8 -x {1.8 10.0 0 ------- null}
+ -t 2.788e-05 -s 0 -d 10 -p tcp -e 40 -c 8 -i 8 -a 8 -x {1.8 10.0 0 ------- null}
- -t 2.788e-05 -s 0 -d 10 -p tcp -e 40 -c 8 -i 8 -a 8 -x {1.8 10.0 0 ------- null}
h -t 2.788e-05 -s 0 -d 10 -p tcp -e 40 -c 8 -i 8 -a 8 -x {1.8 10.0 -1 ------- null}
r -t 2.82e-05 -s 1 -d 0 -p tcp -e 40 -c 9 -i 9 -a 9 -x {1.9 11.0 0 ------- null}
+ -t 2.82e-05 -s 0 -d 11 -p tcp -e 40 -c 9 -i 9 -a 9 -x {1.9 11.0 0 ------- null}
- -t 2.82e-05 -s 0 -d 11 -p tcp -e 40 -c 9 -i 9 -a 9 -x {1.9 11.0 0 ------- null}
h -t 2.82e-05 -s 0 -d 11 -p tcp -e 40 -c 9 -i 9 -a 9 -x {1.9 11.0 -1 ------- null}
r -t 2.852e-05 -s 1 -d 0 -p tcp -e 40 -c 10 -i 10 -a 10 -x {1.10 12.0 0 ------- null}
+ -t 2.852e-05 -s 0 -d 12 -p tcp -e 40 -c 10 -i 10 -a 10 -x {1.10 12.0 0 ------- null}
- -t 2.852e-05 -s 0 -d 12 -p tcp -e 40 -c 10 -i 10 -a 10 -x {1.10 12.0 0 ------- null}
h -t 2.852e-05 -s 0 -d 12 -p tcp -e 40 -c 10 -i 10 -a 10 -x {1.10 12.0 -1 ------- null}
r -t 2.884e-05 -s 1 -d 0 -p tcp -e 40 -c 11 -i 11 -a 11 -x {1.11 13.0 0 ------- null}
+ -t 2.884e-05 -s 0 -d 13 -p tcp -e 40 -c 11 -i 11 -a 11 -x {1.11 13.0 0 ------- null}
- -t 2.884e-05 -s 0 -d 13 -p tcp -e 40 -c 11 -i 11 -a 11 -x {1.11 13.0 0 ------- null}
h -t 2.884e-05 -s 0 -d 13 -p tcp -e 40 -c 11 -i 11 -a 11 -x {1.11 13.0 -1 ------- null}
r -t 2.916e-05 -s 1 -d 0 -p tcp -e 40 -c 12 -i 12 -a 12 -x {1.12 14.0 0 ------- null}
+ -t 2.916e-05 -s 0 -d 14 -p tcp -e 40 -c 12 -i 12 -a 12 -x {1.12 14.0 0 ------- null}
- -t 2.916e-05 -s 0 -d 14 -p tcp -e 40 -c 12 -i 12 -a 12 -x {1.12 14.0 0 ------- null}
h -t 2.916e-05 -s 0 -d 14 -p tcp -e 40 -c 12 -i 12 -a 12 -x {1.12 14.0 -1 ------- null}
r -t 2.948e-05 -s 1 -d 0 -p tcp -e 40 -c 13 -i 13 -a 13 -x {1.13 15.0 0 ------- null}
+ -t 2.948e-05 -s 0 -d 15 -p tcp -e 40 -c 13 -i 13 -a 13 -x {1.13 15.0 0 ------- null}
- -t 2.948e-05 -s 0 -d 15 -p tcp -e 40 -c 13 -i 13 -a 13 -x {1.13 15.0 0 ------- null}
h -t 2.948e-05 -s 0 -d 15 -p tcp -e 40 -c 13 -i 13 -a 13 -x {1.13 15.0 -1 ------- null}
r -t 2.98e-05 -s 1 -d 0 -p tcp -e 40 -c 14 -i 14 -a 14 -x {1.14 16.0 0 ------- null}
+ -t 2.98e-05 -s 0 -d 16 -p tcp -e 40 -c 14 -i 14 -a 14 -x {1.14 16.0 0 ------- null}
- -t 2.98e-05 -s 0 -d 16 -p tcp -e 40 -c 14 -i 14 -a 14 -x {1.14 16.0 0 ------- null}
h -t 2.98e-05 -s 0 -d 16 -p tcp -e 40 -c 14 -i 14 -a 14 -x {1.14 16.0 -1 ------- null}
r -t 3.012e-05 -s 1 -d 0 -p tcp -e 40 -c 15 -i 15 -a 15 -x {1.15 17.0 0 ------- null}
+ -t 3.012e-05 -s 0 -d 17 -p tcp -e 40 -c 15 -i 15 -a 15 -x {1.15 17.0 0 ------- null}
- -t 3.012e-05 -s 0 -d 17 -p tcp -e 40 -c 15 -i 15 -a 15 -x {1.15 17.0 0 ------- null}
h -t 3.012e-05 -s 0 -d 17 -p tcp -e 40 -c 15 -i 15 -a 15 -x {1.15 17.0 -1 ------- null}
r -t 3.044e-05 -s 1 -d 0 -p tcp -e 40 -c 16 -i 16 -a 16 -x {1.16 18.0 0 ------- null}
+ -t 3.044e-05 -s 0 -d 18 -p tcp -e 40 -c 16 -i 16 -a 16 -x {1.16 18.0 0 ------- null}
- -t 3.044e-05 -s 0 -d 18 -p tcp -e 40 -c 16 -i 16 -a 16 -x {1.16 18.0 0 ------- null}
h -t 3.044e-05 -s 0 -d 18 -p tcp -e 40 -c 16 -i 16 -a 16 -x {1.16 18.0 -1 ------- null}
r -t 3.076e-05 -s 1 -d 0 -p tcp -e 40 -c 17 -i 17 -a 17 -x {1.17 19.0 0 ------- null}
+ -t 3.076e-05 -s 0 -d 19 -p tcp -e 40 -c 17 -i 17 -a 17 -x {1.17 19.0 0 ------- null}
- -t 3.076e-05 -s 0 -d 19 -p tcp -e 40 -c 17 -i 17 -a 17 -x {1.17 19.0 0 ------- null}
h -t 3.076e-05 -s 0 -d 19 -p tcp -e 40 -c 17 -i 17 -a 17 -x {1.17 19.0 -1 ------- null}
r -t 3.108e-05 -s 1 -d 0 -p tcp -e 40 -c 18 -i 18 -a 18 -x {1.18 20.0 0 ------- null}
+ -t 3.108e-05 -s 0 -d 20 -p tcp -e 40 -c 18 -i 18 -a 18 -x {1.18 20.0 0 ------- null}
- -t 3.108e-05 -s 0 -d 20 -p tcp -e 40 -c 18 -i 18 -a 18 -x {1.18 20.0 0 ------- null}
h -t 3.108e-05 -s 0 -d 20 -p tcp -e 40 -c 18 -i 18 -a 18 -x {1.18 20.0 -1 ------- null}
r -t 3.14e-05 -s 1 -d 0 -p tcp -e 40 -c 19 -i 19 -a 19 -x {1.19 21.0 0 ------- null}
+ -t 3.14e-05 -s 0 -d 21 -p tcp -e 40 -c 19 -i 19 -a 19 -x {1.19 21.0 0 ------- null}
- -t 3.14e-05 -s 0 -d 21 -p tcp -e 40 -c 19 -i 19 -a 19 -x {1.19 21.0 0 ------- null}
h -t 3.14e-05 -s 0 -d 21 -p tcp -e 40 -c 19 -i 19 -a 19 -x {1.19 21.0 -1 ------- null}
r -t 3.172e-05 -s 1 -d 0 -p tcp -e 40 -c 20 -i 20 -a 20 -x {1.20 22.0 0 ------- null}
+ -t 3.172e-05 -s 0 -d 22 -p tcp -e 40 -c 20 -i 20 -a 20 -x {1.20 22.0 0 ------- null}
- -t 3.172e-05 -s 0 -d 22 -p tcp -e 40 -c 20 -i 20 -a 20 -x {1.20 22.0 0 ------- null}
h -t 3.172e-05 -s 0 -d 22 -p tcp -e 40 -c 20 -i 20 -a 20 -x {1.20 22.0 -1 ------- null}
r -t 3.204e-05 -s 1 -d 0 -p tcp -e 40 -c 21 -i 21 -a 21 -x {1.21 23.0 0 ------- null}
+ -t 3.204e-05 -s 0 -d 23 -p tcp -e 40 -c 21 -i 21 -a 21 -x {1.21 23.0 0 ------- null}
- -t 3.204e-05 -s 0 -d 23 -p tcp -e 40 -c 21 -i 21 -a 21 -x {1.21 23.0 0 ------- null}
h -t 3.204e-05 -s 0 -d 23 -p tcp -e 40 -c 21 -i 21 -a 21 -x {1.21 23.0 -1 ------- null}
r -t 3.236e-05 -s 1 -d 0 -p tcp -e 40 -c 22 -i 22 -a 22 -x {1.22 24.0 0 ------- null}
+ -t 3.236e-05 -s 0 -d 24 -p tcp -e 40 -c 22 -i 22 -a 22 -x {1.22 24.0 0 ------- null}
- -t 3.236e-05 -s 0 -d 24 -p tcp -e 40 -c 22 -i 22 -a 22 -x {1.22 24.0 0 ------- null}
h -t 3.236e-05 -s 0 -d 24 -p tcp -e 40 -c 22 -i 22 -a 22 -x {1.22 24.0 -1 ------- null}
r -t 3.268e-05 -s 1 -d 0 -p tcp -e 40 -c 23 -i 23 -a 23 -x {1.23 25.0 0 ------- null}
+ -t 3.268e-05 -s 0 -d 25 -p tcp -e 40 -c 23 -i 23 -a 23 -x {1.23 25.0 0 ------- null}
- -t 3.268e-05 -s 0 -d 25 -p tcp -e 40 -c 23 -i 23 -a 23 -x {1.23 25.0 0 ------- null}
h -t 3.268e-05 -s 0 -d 25 -p tcp -e 40 -c 23 -i 23 -a 23 -x {1.23 25.0 -1 ------- null}
r -t 3.3e-05 -s 1 -d 0 -p tcp -e 40 -c 24 -i 24 -a 24 -x {1.24 26.0 0 ------- null}
+ -t 3.3e-05 -s 0 -d 26 -p tcp -e 40 -c 24 -i 24 -a 24 -x {1.24 26.0 0 ------- null}
- -t 3.3e-05 -s 0 -d 26 -p tcp -e 40 -c 24 -i 24 -a 24 -x {1.24 26.0 0 ------- null}
h -t 3.3e-05 -s 0 -d 26 -p tcp -e 40 -c 24 -i 24 -a 24 -x {1.24 26.0 -1 ------- null}
r -t 3.332e-05 -s 1 -d 0 -p tcp -e 40 -c 25 -i 25 -a 25 -x {1.25 27.0 0 ------- null}
+ -t 3.332e-05 -s 0 -d 27 -p tcp -e 40 -c 25 -i 25 -a 25 -x {1.25 27.0 0 ------- null}
- -t 3.332e-05 -s 0 -d 27 -p tcp -e 40 -c 25 -i 25 -a 25 -x {1.25 27.0 0 ------- null}
h -t 3.332e-05 -s 0 -d 27 -p tcp -e 40 -c 25 -i 25 -a 25 -x {1.25 27.0 -1 ------- null}
r -t 3.364e-05 -s 1 -d 0 -p tcp -e 40 -c 26 -i 26 -a 26 -x {1.26 28.0 0 ------- null}
+ -t 3.364e-05 -s 0 -d 28 -p tcp -e 40 -c 26 -i 26 -a 26 -x {1.26 28.0 0 ------- null}
- -t 3.364e-05 -s 0 -d 28 -p tcp -e 40 -c 26 -i 26 -a 26 -x {1.26 28.0 0 ------- null}
h -t 3.364e-05 -s 0 -d 28 -p tcp -e 40 -c 26 -i 26 -a 26 -x {1.26 28.0 -1 ------- null}
r -t 3.396e-05 -s 1 -d 0 -p tcp -e 40 -c 27 -i 27 -a 27 -x {1.27 29.0 0 ------- null}
+ -t 3.396e-05 -s 0 -d 29 -p tcp -e 40 -c 27 -i 27 -a 27 -x {1.27 29.0 0 ------- null}
- -t 3.396e-05 -s 0 -d 29 -p tcp -e 40 -c 27 -i 27 -a 27 -x {1.27 29.0 0 ------- null}
h -t 3.396e-05 -s 0 -d 29 -p tcp -e 40 -c 27 -i 27 -a 27 -x {1.27 29.0 -1 ------- null}
r -t 3.428e-05 -s 1 -d 0 -p tcp -e 40 -c 28 -i 28 -a 28 -x {1.28 30.0 0 ------- null}
+ -t 3.428e-05 -s 0 -d 30 -p tcp -e 40 -c 28 -i 28 -a 28 -x {1.28 30.0 0 ------- null}
- -t 3.428e-05 -s 0 -d 30 -p tcp -e 40 -c 28 -i 28 -a 28 -x {1.28 30.0 0 ------- null}
h -t 3.428e-05 -s 0 -d 30 -p tcp -e 40 -c 28 -i 28 -a 28 -x {1.28 30.0 -1 ------- null}
r -t 3.46e-05 -s 1 -d 0 -p tcp -e 40 -c 29 -i 29 -a 29 -x {1.29 31.0 0 ------- null}
+ -t 3.46e-05 -s 0 -d 31 -p tcp -e 40 -c 29 -i 29 -a 29 -x {1.29 31.0 0 ------- null}
- -t 3.46e-05 -s 0 -d 31 -p tcp -e 40 -c 29 -i 29 -a 29 -x {1.29 31.0 0 ------- null}
h -t 3.46e-05 -s 0 -d 31 -p tcp -e 40 -c 29 -i 29 -a 29 -x {1.29 31.0 -1 ------- null}
r -t 3.492e-05 -s 1 -d 0 -p tcp -e 40 -c 30 -i 30 -a 30 -x {1.30 32.0 0 ------- null}
+ -t 3.492e-05 -s 0 -d 32 -p tcp -e 40 -c 30 -i 30 -a 30 -x {1.30 32.0 0 ------- null}
- -t 3.492e-05 -s 0 -d 32 -p tcp -e 40 -c 30 -i 30 -a 30 -x {1.30 32.0 0 ------- null}
h -t 3.492e-05 -s 0 -d 32 -p tcp -e 40 -c 30 -i 30 -a 30 -x {1.30 32.0 -1 ------- null}
r -t 3.524e-05 -s 1 -d 0 -p tcp -e 40 -c 31 -i 31 -a 31 -x {1.31 33.0 0 ------- null}
+ -t 3.524e-05 -s 0 -d 33 -p tcp -e 40 -c 31 -i 31 -a 31 -x {1.31 33.0 0 ------- null}
- -t 3.524e-05 -s 0 -d 33 -p tcp -e 40 -c 31 -i 31 -a 31 -x {1.31 33.0 0 ------- null}
h -t 3.524e-05 -s 0 -d 33 -p tcp -e 40 -c 31 -i 31 -a 31 -x {1.31 33.0 -1 ------- null}
r -t 5.064e-05 -s 0 -d 2 -p tcp -e 40 -c 0 -i 0 -a 0 -x {1.0 2.0 0 ------- null}
+ -t 5.064e-05 -s 2 -d 0 -p ack -e 40 -c 0 -i 32 -a 0 -x {2.0 1.0 0 ------- null}
- -t 5.064e-05 -s 2 -d 0 -p ack -e 40 -c 0 -i 32 -a 0 -x {2.0 1.0 0 ------- null}
h -t 5.064e-05 -s 2 -d 0 -p ack -e 40 -c 0 -i 32 -a 0 -x {2.0 1.0 -1 ------- null}
r -t 5.096e-05 -s 0 -d 3 -p tcp -e 40 -c 1 -i 1 -a 1 -x {1.1 3.0 0 ------- null}
+ -t 5.096e-05 -s 3 -d 0 -p ack -e 40 -c 1 -i 33 -a 1 -x {3.0 1.1 0 ------- null}
- -t 5.096e-05 -s 3 -d 0 -p ack -e 40 -c 1 -i 33 -a 1 -x {3.0 1.1 0 ------- null}
h -t 5.096e-05 -s 3 -d 0 -p ack -e 40 -c 1 -i 33 -a 1 -x {3.0 1.1 -1 ------- null}
r -t 5.128e-05 -s 0 -d 4 -p tcp -e 40 -c 2 -i 2 -a 2 -x {1.2 4.0 0 ------- null}
+ -t 5.128e-05 -s 4 -d 0 -p ack -e 40 -c 2 -i 34 -a 2 -x {4.0 1.2 0 ------- null}
- -t 5.128e-05 -s 4 -d 0 -p ack -e 40 -c 2 -i 34 -a 2 -x {4.0 1.2 0 ------- null}
h -t 5.128e-05 -s 4 -d 0 -p ack -e 40 -c 2 -i 34 -a 2 -x {4.0 1.2 -1 ------- null}
r -t 5.16e-05 -s 0 -d 5 -p tcp -e 40 -c 3 -i 3 -a 3 -x {1.3 5.0 0 ------- null}
+ -t 5.16e-05 -s 5 -d 0 -p ack -e 40 -c 3 -i 35 -a 3 -x {5.0 1.3 0 ------- null}
- -t 5.16e-05 -s 5 -d 0 -p ack -e 40 -c 3 -i 35 -a 3 -x {5.0 1.3 0 ------- null}
h -t 5.16e-05 -s 5 -d 0 -p ack -e 40 -c 3 -i 35 -a 3 -x {5.0 1.3 -1 ------- null}
r -t 5.192e-05 -s 0 -d 6 -p tcp -e 40 -c 4 -i 4 -a 4 -x {1.4 6.0 0 ------- null}
+ -t 5.192e-05 -s 6 -d 0 -p ack -e 40 -c 4 -i 36 -a 4 -x {6.0 1.4 0 ------- null}
- -t 5.192e-05 -s 6 -d 0 -p ack -e 40 -c 4 -i 36 -a 4 -x {6.0 1.4 0 ------- null}
h -t 5.192e-05 -s 6 -d 0 -p ack -e 40 -c 4 -i 36 -a 4 -x {6.0 1.4 -1 ------- null}
r -t 5.224e-05 -s 0 -d 7 -p tcp -e 40 -c 5 -i 5 -a 5 -x {1.5 7.0 0 ------- null}
+ -t 5.224e-05 -s 7 -d 0 -p ack -e 40 -c 5 -i 37 -a 5 -x {7.0 1.5 0 ------- null}
- -t 5.224e-05 -s 7 -d 0 -p ack -e 40 -c 5 -i 37 -a 5 -x {7.0 1.5 0 ------- null}
h -t 5.224e-05 -s 7 -d 0 -p ack -e 40 -c 5 -i 37 -a 5 -x {7.0 1.5 -1 ------- null}
r -t 5.256e-05 -s 0 -d 8 -p tcp -e 40 -c 6 -i 6 -a 6 -x {1.6 8.0 0 ------- null}
+ -t 5.256e-05 -s 8 -d 0 -p ack -e 40 -c 6 -i 38 -a 6 -x {8.0 1.6 0 ------- null}
- -t 5.256e-05 -s 8 -d 0 -p ack -e 40 -c 6 -i 38 -a 6 -x {8.0 1.6 0 ------- null}
h -t 5.256e-05 -s 8 -d 0 -p ack -e 40 -c 6 -i 38 -a 6 -x {8.0 1.6 -1 ------- null}
r -t 5.288e-05 -s 0 -d 9 -p tcp -e 40 -c 7 -i 7 -a 7 -x {1.7 9.0 0 ------- null}
+ -t 5.288e-05 -s 9 -d 0 -p ack -e 40 -c 7 -i 39 -a 7 -x {9.0 1.7 0 ------- null}
- -t 5.288e-05 -s 9 -d 0 -p ack -e 40 -c 7 -i 39 -a 7 -x {9.0 1.7 0 ------- null}
h -t 5.288e-05 -s 9 -d 0 -p ack -e 40 -c 7 -i 39 -a 7 -x {9.0 1.7 -1 ------- null}
r -t 5.32e-05 -s 0 -d 10 -p tcp -e 40 -c 8 -i 8 -a 8 -x {1.8 10.0 0 ------- null}
+ -t 5.32e-05 -s 10 -d 0 -p ack -e 40 -c 8 -i 40 -a 8 -x {10.0 1.8 0 ------- null}
- -t 5.32e-05 -s 10 -d 0 -p ack -e 40 -c 8 -i 40 -a 8 -x {10.0 1.8 0 ------- null}
h -t 5.32e-05 -s 10 -d 0 -p ack -e 40 -c 8 -i 40 -a 8 -x {10.0 1.8 -1 ------- null}
r -t 5.352e-05 -s 0 -d 11 -p tcp -e 40 -c 9 -i 9 -a 9 -x {1.9 11.0 0 ------- null}
+ -t 5.352e-05 -s 11 -d 0 -p ack -e 40 -c 9 -i 41 -a 9 -x {11.0 1.9 0 ------- null}
- -t 5.352e-05 -s 11 -d 0 -p ack -e 40 -c 9 -i 41 -a 9 -x {11.0 1.9 0 ------- null}
h -t 5.352e-05 -s 11 -d 0 -p ack -e 40 -c 9 -i 41 -a 9 -x {11.0 1.9 -1 ------- null}
r -t 5.384e-05 -s 0 -d 12 -p tcp -e 40 -c 10 -i 10 -a 10 -x {1.10 12.0 0 ------- null}
+ -t 5.384e-05 -s 12 -d 0 -p ack -e 40 -c 10 -i 42 -a 10 -x {12.0 1.10 0 ------- null}
- -t 5.384e-05 -s 12 -d 0 -p ack -e 40 -c 10 -i 42 -a 10 -x {12.0 1.10 0 ------- null}
h -t 5.384e-05 -s 12 -d 0 -p ack -e 40 -c 10 -i 42 -a 10 -x {12.0 1.10 -1 ------- null}
r -t 5.416e-05 -s 0 -d 13 -p tcp -e 40 -c 11 -i 11 -a 11 -x {1.11 13.0 0 ------- null}
+ -t 5.416e-05 -s 13 -d 0 -p ack -e 40 -c 11 -i 43 -a 11 -x {13.0 1.11 0 ------- null}
- -t 5.416e-05 -s 13 -d 0 -p ack -e 40 -c 11 -i 43 -a 11 -x {13.0 1.11 0 ------- null}
h -t 5.416e-05 -s 13 -d 0 -p ack -e 40 -c 11 -i 43 -a 11 -x {13.0 1.11 -1 ------- null}
r -t 5.448e-05 -s 0 -d 14 -p tcp -e 40 -c 12 -i 12 -a 12 -x {1.12 14.0 0 ------- null}
+ -t 5.448e-05 -s 14 -d 0 -p ack -e 40 -c 12 -i 44 -a 12 -x {14.0 1.12 0 ------- null}
- -t 5.448e-05 -s 14 -d 0 -p ack -e 40 -c 12 -i 44 -a 12 -x {14.0 1.12 0 ------- null}