+ 0 1 0 tcp 40 ------- 0 1.0 2.0 0 0
- 0 1 0 tcp 40 ------- 0 1.0 2.0 0 0
v 0 eval {set sim_annotation {0 Start Requester 0}}
+ 0 1 0 tcp 40 ------- 1 1.1 3.0 0 1
v 0 eval {set sim_annotation {0 Start Requester 1}}
+ 0 1 0 tcp 40 ------- 2 1.2 4.0 0 2
v 0 eval {set sim_annotation {0 Start Requester 2}}
+ 0 1 0 tcp 40 ------- 3 1.3 5.0 0 3
v 0 eval {set sim_annotation {0 Start Requester 3}}
+ 0 1 0 tcp 40 ------- 4 1.4 6.0 0 4
v 0 eval {set sim_annotation {0 Start Requester 4}}
+ 0 1 0 tcp 40 ------- 5 1.5 7.0 0 5
v 0 eval {set sim_annotation {0 Start Requester 5}}
+ 0 1 0 tcp 40 ------- 6 1.6 8.0 0 6
v 0 eval {set sim_annotation {0 Start Requester 6}}
+ 0 1 0 tcp 40 ------- 7 1.7 9.0 0 7
v 0 eval {set sim_annotation {0 Start Requester 7}}
+ 0 1 0 tcp 40 ------- 8 1.8 10.0 0 8
v 0 eval {set sim_annotation {0 Start Requester 8}}
+ 0 1 0 tcp 40 ------- 9 1.9 11.0 0 9
v 0 eval {set sim_annotation {0 Start Requester 9}}
+ 0 1 0 tcp 40 ------- 10 1.10 12.0 0 10
v 0 eval {set sim_annotation {0 Start Requester 10}}
+ 0 1 0 tcp 40 ------- 11 1.11 13.0 0 11
v 0 eval {set sim_annotation {0 Start Requester 11}}
+ 0 1 0 tcp 40 ------- 12 1.12 14.0 0 12
v 0 eval {set sim_annotation {0 Start Requester 12}}
+ 0 1 0 tcp 40 ------- 13 1.13 15.0 0 13
v 0 eval {set sim_annotation {0 Start Requester 13}}
+ 0 1 0 tcp 40 ------- 14 1.14 16.0 0 14
v 0 eval {set sim_annotation {0 Start Requester 14}}
+ 0 1 0 tcp 40 ------- 15 1.15 17.0 0 15
v 0 eval {set sim_annotation {0 Start Requester 15}}
+ 0 1 0 tcp 40 ------- 16 1.16 18.0 0 16
v 0 eval {set sim_annotation {0 Start Requester 16}}
+ 0 1 0 tcp 40 ------- 17 1.17 19.0 0 17
v 0 eval {set sim_annotation {0 Start Requester 17}}
+ 0 1 0 tcp 40 ------- 18 1.18 20.0 0 18
v 0 eval {set sim_annotation {0 Start Requester 18}}
+ 0 1 0 tcp 40 ------- 19 1.19 21.0 0 19
v 0 eval {set sim_annotation {0 Start Requester 19}}
+ 0 1 0 tcp 40 ------- 20 1.20 22.0 0 20
v 0 eval {set sim_annotation {0 Start Requester 20}}
+ 0 1 0 tcp 40 ------- 21 1.21 23.0 0 21
v 0 eval {set sim_annotation {0 Start Requester 21}}
+ 0 1 0 tcp 40 ------- 22 1.22 24.0 0 22
v 0 eval {set sim_annotation {0 Start Requester 22}}
+ 0 1 0 tcp 40 ------- 23 1.23 25.0 0 23
v 0 eval {set sim_annotation {0 Start Requester 23}}
+ 0 1 0 tcp 40 ------- 24 1.24 26.0 0 24
v 0 eval {set sim_annotation {0 Start Requester 24}}
+ 0 1 0 tcp 40 ------- 25 1.25 27.0 0 25
v 0 eval {set sim_annotation {0 Start Requester 25}}
+ 0 1 0 tcp 40 ------- 26 1.26 28.0 0 26
v 0 eval {set sim_annotation {0 Start Requester 26}}
+ 0 1 0 tcp 40 ------- 27 1.27 29.0 0 27
v 0 eval {set sim_annotation {0 Start Requester 27}}
+ 0 1 0 tcp 40 ------- 28 1.28 30.0 0 28
v 0 eval {set sim_annotation {0 Start Requester 28}}
+ 0 1 0 tcp 40 ------- 29 1.29 31.0 0 29
v 0 eval {set sim_annotation {0 Start Requester 29}}
+ 0 1 0 tcp 40 ------- 30 1.30 32.0 0 30
v 0 eval {set sim_annotation {0 Start Requester 30}}
+ 0 1 0 tcp 40 ------- 31 1.31 33.0 0 31
v 0 eval {set sim_annotation {0 Start Requester 31}}
- 0 1 0 tcp 40 ------- 1 1.1 3.0 0 1
- 1e-06 1 0 tcp 40 ------- 2 1.2 4.0 0 2
- 1e-06 1 0 tcp 40 ------- 3 1.3 5.0 0 3
- 1e-06 1 0 tcp 40 ------- 4 1.4 6.0 0 4
- 2e-06 1 0 tcp 40 ------- 5 1.5 7.0 0 5
- 2e-06 1 0 tcp 40 ------- 6 1.6 8.0 0 6
- 2e-06 1 0 tcp 40 ------- 7 1.7 9.0 0 7
- 3e-06 1 0 tcp 40 ------- 8 1.8 10.0 0 8
- 3e-06 1 0 tcp 40 ------- 9 1.9 11.0 0 9
- 3e-06 1 0 tcp 40 ------- 10 1.10 12.0 0 10
- 4e-06 1 0 tcp 40 ------- 11 1.11 13.0 0 11
- 4e-06 1 0 tcp 40 ------- 12 1.12 14.0 0 12
- 4e-06 1 0 tcp 40 ------- 13 1.13 15.0 0 13
- 4e-06 1 0 tcp 40 ------- 14 1.14 16.0 0 14
- 5e-06 1 0 tcp 40 ------- 15 1.15 17.0 0 15
- 5e-06 1 0 tcp 40 ------- 16 1.16 18.0 0 16
- 5e-06 1 0 tcp 40 ------- 17 1.17 19.0 0 17
- 6e-06 1 0 tcp 40 ------- 18 1.18 20.0 0 18
- 6e-06 1 0 tcp 40 ------- 19 1.19 21.0 0 19
- 6e-06 1 0 tcp 40 ------- 20 1.20 22.0 0 20
- 7e-06 1 0 tcp 40 ------- 21 1.21 23.0 0 21
- 7e-06 1 0 tcp 40 ------- 22 1.22 24.0 0 22
- 7e-06 1 0 tcp 40 ------- 23 1.23 25.0 0 23
- 8e-06 1 0 tcp 40 ------- 24 1.24 26.0 0 24
- 8e-06 1 0 tcp 40 ------- 25 1.25 27.0 0 25
- 8e-06 1 0 tcp 40 ------- 26 1.26 28.0 0 26
- 9e-06 1 0 tcp 40 ------- 27 1.27 29.0 0 27
- 9e-06 1 0 tcp 40 ------- 28 1.28 30.0 0 28
- 9e-06 1 0 tcp 40 ------- 29 1.29 31.0 0 29
- 1e-05 1 0 tcp 40 ------- 30 1.30 32.0 0 30
- 1e-05 1 0 tcp 40 ------- 31 1.31 33.0 0 31
r 2.5e-05 1 0 tcp 40 ------- 0 1.0 2.0 0 0
+ 2.5e-05 0 2 tcp 40 ------- 0 1.0 2.0 0 0
- 2.5e-05 0 2 tcp 40 ------- 0 1.0 2.0 0 0
r 2.6e-05 1 0 tcp 40 ------- 1 1.1 3.0 0 1
+ 2.6e-05 0 3 tcp 40 ------- 1 1.1 3.0 0 1
- 2.6e-05 0 3 tcp 40 ------- 1 1.1 3.0 0 1
r 2.6e-05 1 0 tcp 40 ------- 2 1.2 4.0 0 2
+ 2.6e-05 0 4 tcp 40 ------- 2 1.2 4.0 0 2
- 2.6e-05 0 4 tcp 40 ------- 2 1.2 4.0 0 2
r 2.6e-05 1 0 tcp 40 ------- 3 1.3 5.0 0 3
+ 2.6e-05 0 5 tcp 40 ------- 3 1.3 5.0 0 3
- 2.6e-05 0 5 tcp 40 ------- 3 1.3 5.0 0 3
r 2.7e-05 1 0 tcp 40 ------- 4 1.4 6.0 0 4
+ 2.7e-05 0 6 tcp 40 ------- 4 1.4 6.0 0 4
- 2.7e-05 0 6 tcp 40 ------- 4 1.4 6.0 0 4
r 2.7e-05 1 0 tcp 40 ------- 5 1.5 7.0 0 5
+ 2.7e-05 0 7 tcp 40 ------- 5 1.5 7.0 0 5
- 2.7e-05 0 7 tcp 40 ------- 5 1.5 7.0 0 5
r 2.7e-05 1 0 tcp 40 ------- 6 1.6 8.0 0 6
+ 2.7e-05 0 8 tcp 40 ------- 6 1.6 8.0 0 6
- 2.7e-05 0 8 tcp 40 ------- 6 1.6 8.0 0 6
r 2.8e-05 1 0 tcp 40 ------- 7 1.7 9.0 0 7
+ 2.8e-05 0 9 tcp 40 ------- 7 1.7 9.0 0 7
- 2.8e-05 0 9 tcp 40 ------- 7 1.7 9.0 0 7
r 2.8e-05 1 0 tcp 40 ------- 8 1.8 10.0 0 8
+ 2.8e-05 0 10 tcp 40 ------- 8 1.8 10.0 0 8
- 2.8e-05 0 10 tcp 40 ------- 8 1.8 10.0 0 8
r 2.8e-05 1 0 tcp 40 ------- 9 1.9 11.0 0 9
+ 2.8e-05 0 11 tcp 40 ------- 9 1.9 11.0 0 9
- 2.8e-05 0 11 tcp 40 ------- 9 1.9 11.0 0 9
r 2.9e-05 1 0 tcp 40 ------- 10 1.10 12.0 0 10
+ 2.9e-05 0 12 tcp 40 ------- 10 1.10 12.0 0 10
- 2.9e-05 0 12 tcp 40 ------- 10 1.10 12.0 0 10
r 2.9e-05 1 0 tcp 40 ------- 11 1.11 13.0 0 11
+ 2.9e-05 0 13 tcp 40 ------- 11 1.11 13.0 0 11
- 2.9e-05 0 13 tcp 40 ------- 11 1.11 13.0 0 11
r 2.9e-05 1 0 tcp 40 ------- 12 1.12 14.0 0 12
+ 2.9e-05 0 14 tcp 40 ------- 12 1.12 14.0 0 12
- 2.9e-05 0 14 tcp 40 ------- 12 1.12 14.0 0 12
r 2.9e-05 1 0 tcp 40 ------- 13 1.13 15.0 0 13
+ 2.9e-05 0 15 tcp 40 ------- 13 1.13 15.0 0 13
- 2.9e-05 0 15 tcp 40 ------- 13 1.13 15.0 0 13
r 3e-05 1 0 tcp 40 ------- 14 1.14 16.0 0 14
+ 3e-05 0 16 tcp 40 ------- 14 1.14 16.0 0 14
- 3e-05 0 16 tcp 40 ------- 14 1.14 16.0 0 14
r 3e-05 1 0 tcp 40 ------- 15 1.15 17.0 0 15
+ 3e-05 0 17 tcp 40 ------- 15 1.15 17.0 0 15
- 3e-05 0 17 tcp 40 ------- 15 1.15 17.0 0 15
r 3e-05 1 0 tcp 40 ------- 16 1.16 18.0 0 16
+ 3e-05 0 18 tcp 40 ------- 16 1.16 18.0 0 16
- 3e-05 0 18 tcp 40 ------- 16 1.16 18.0 0 16
r 3.1e-05 1 0 tcp 40 ------- 17 1.17 19.0 0 17
+ 3.1e-05 0 19 tcp 40 ------- 17 1.17 19.0 0 17
- 3.1e-05 0 19 tcp 40 ------- 17 1.17 19.0 0 17
r 3.1e-05 1 0 tcp 40 ------- 18 1.18 20.0 0 18
+ 3.1e-05 0 20 tcp 40 ------- 18 1.18 20.0 0 18
- 3.1e-05 0 20 tcp 40 ------- 18 1.18 20.0 0 18
r 3.1e-05 1 0 tcp 40 ------- 19 1.19 21.0 0 19
+ 3.1e-05 0 21 tcp 40 ------- 19 1.19 21.0 0 19
- 3.1e-05 0 21 tcp 40 ------- 19 1.19 21.0 0 19
r 3.2e-05 1 0 tcp 40 ------- 20 1.20 22.0 0 20
+ 3.2e-05 0 22 tcp 40 ------- 20 1.20 22.0 0 20
- 3.2e-05 0 22 tcp 40 ------- 20 1.20 22.0 0 20
r 3.2e-05 1 0 tcp 40 ------- 21 1.21 23.0 0 21
+ 3.2e-05 0 23 tcp 40 ------- 21 1.21 23.0 0 21
- 3.2e-05 0 23 tcp 40 ------- 21 1.21 23.0 0 21
r 3.2e-05 1 0 tcp 40 ------- 22 1.22 24.0 0 22
+ 3.2e-05 0 24 tcp 40 ------- 22 1.22 24.0 0 22
- 3.2e-05 0 24 tcp 40 ------- 22 1.22 24.0 0 22
r 3.3e-05 1 0 tcp 40 ------- 23 1.23 25.0 0 23
+ 3.3e-05 0 25 tcp 40 ------- 23 1.23 25.0 0 23
- 3.3e-05 0 25 tcp 40 ------- 23 1.23 25.0 0 23
r 3.3e-05 1 0 tcp 40 ------- 24 1.24 26.0 0 24
+ 3.3e-05 0 26 tcp 40 ------- 24 1.24 26.0 0 24
- 3.3e-05 0 26 tcp 40 ------- 24 1.24 26.0 0 24
r 3.3e-05 1 0 tcp 40 ------- 25 1.25 27.0 0 25
+ 3.3e-05 0 27 tcp 40 ------- 25 1.25 27.0 0 25
- 3.3e-05 0 27 tcp 40 ------- 25 1.25 27.0 0 25
r 3.4e-05 1 0 tcp 40 ------- 26 1.26 28.0 0 26
+ 3.4e-05 0 28 tcp 40 ------- 26 1.26 28.0 0 26
- 3.4e-05 0 28 tcp 40 ------- 26 1.26 28.0 0 26
r 3.4e-05 1 0 tcp 40 ------- 27 1.27 29.0 0 27
+ 3.4e-05 0 29 tcp 40 ------- 27 1.27 29.0 0 27
- 3.4e-05 0 29 tcp 40 ------- 27 1.27 29.0 0 27
r 3.4e-05 1 0 tcp 40 ------- 28 1.28 30.0 0 28
+ 3.4e-05 0 30 tcp 40 ------- 28 1.28 30.0 0 28
- 3.4e-05 0 30 tcp 40 ------- 28 1.28 30.0 0 28
r 3.5e-05 1 0 tcp 40 ------- 29 1.29 31.0 0 29
+ 3.5e-05 0 31 tcp 40 ------- 29 1.29 31.0 0 29
- 3.5e-05 0 31 tcp 40 ------- 29 1.29 31.0 0 29
r 3.5e-05 1 0 tcp 40 ------- 30 1.30 32.0 0 30
+ 3.5e-05 0 32 tcp 40 ------- 30 1.30 32.0 0 30
- 3.5e-05 0 32 tcp 40 ------- 30 1.30 32.0 0 30
r 3.5e-05 1 0 tcp 40 ------- 31 1.31 33.0 0 31
+ 3.5e-05 0 33 tcp 40 ------- 31 1.31 33.0 0 31
- 3.5e-05 0 33 tcp 40 ------- 31 1.31 33.0 0 31
r 5.1e-05 0 2 tcp 40 ------- 0 1.0 2.0 0 0
+ 5.1e-05 2 0 ack 40 ------- 0 2.0 1.0 0 32
- 5.1e-05 2 0 ack 40 ------- 0 2.0 1.0 0 32
r 5.1e-05 0 3 tcp 40 ------- 1 1.1 3.0 0 1
+ 5.1e-05 3 0 ack 40 ------- 1 3.0 1.1 0 33
- 5.1e-05 3 0 ack 40 ------- 1 3.0 1.1 0 33
r 5.1e-05 0 4 tcp 40 ------- 2 1.2 4.0 0 2
+ 5.1e-05 4 0 ack 40 ------- 2 4.0 1.2 0 34
- 5.1e-05 4 0 ack 40 ------- 2 4.0 1.2 0 34
r 5.2e-05 0 5 tcp 40 ------- 3 1.3 5.0 0 3
+ 5.2e-05 5 0 ack 40 ------- 3 5.0 1.3 0 35
- 5.2e-05 5 0 ack 40 ------- 3 5.0 1.3 0 35
r 5.2e-05 0 6 tcp 40 ------- 4 1.4 6.0 0 4
+ 5.2e-05 6 0 ack 40 ------- 4 6.0 1.4 0 36
- 5.2e-05 6 0 ack 40 ------- 4 6.0 1.4 0 36
r 5.2e-05 0 7 tcp 40 ------- 5 1.5 7.0 0 5
+ 5.2e-05 7 0 ack 40 ------- 5 7.0 1.5 0 37
- 5.2e-05 7 0 ack 40 ------- 5 7.0 1.5 0 37
r 5.3e-05 0 8 tcp 40 ------- 6 1.6 8.0 0 6
+ 5.3e-05 8 0 ack 40 ------- 6 8.0 1.6 0 38
- 5.3e-05 8 0 ack 40 ------- 6 8.0 1.6 0 38
r 5.3e-05 0 9 tcp 40 ------- 7 1.7 9.0 0 7
+ 5.3e-05 9 0 ack 40 ------- 7 9.0 1.7 0 39
- 5.3e-05 9 0 ack 40 ------- 7 9.0 1.7 0 39
r 5.3e-05 0 10 tcp 40 ------- 8 1.8 10.0 0 8
+ 5.3e-05 10 0 ack 40 ------- 8 10.0 1.8 0 40
- 5.3e-05 10 0 ack 40 ------- 8 10.0 1.8 0 40
r 5.4e-05 0 11 tcp 40 ------- 9 1.9 11.0 0 9
+ 5.4e-05 11 0 ack 40 ------- 9 11.0 1.9 0 41
- 5.4e-05 11 0 ack 40 ------- 9 11.0 1.9 0 41
r 5.4e-05 0 12 tcp 40 ------- 10 1.10 12.0 0 10
+ 5.4e-05 12 0 ack 40 ------- 10 12.0 1.10 0 42
- 5.4e-05 12 0 ack 40 ------- 10 12.0 1.10 0 42
r 5.4e-05 0 13 tcp 40 ------- 11 1.11 13.0 0 11
+ 5.4e-05 13 0 ack 40 ------- 11 13.0 1.11 0 43
- 5.4e-05 13 0 ack 40 ------- 11 13.0 1.11 0 43
r 5.4e-05 0 14 tcp 40 ------- 12 1.12 14.0 0 12
+ 5.4e-05 14 0 ack 40 ------- 12 14.0 1.12 0 44
- 5.4e-05 14 0 ack 40 ------- 12 14.0 1.12 0 44
r 5.5e-05 0 15 tcp 40 ------- 13 1.13 15.0 0 13
+ 5.5e-05 15 0 ack 40 ------- 13 15.0 1.13 0 45
- 5.5e-05 15 0 ack 40 ------- 13 15.0 1.13 0 45
r 5.5e-05 0 16 tcp 40 ------- 14 1.14 16.0 0 14
+ 5.5e-05 16 0 ack 40 ------- 14 16.0 1.14 0 46
- 5.5e-05 16 0 ack 40 ------- 14 16.0 1.14 0 46
r 5.5e-05 0 17 tcp 40 ------- 15 1.15 17.0 0 15
+ 5.5e-05 17 0 ack 40 ------- 15 17.0 1.15 0 47
- 5.5e-05 17 0 ack 40 ------- 15 17.0 1.15 0 47
r 5.6e-05 0 18 tcp 40 ------- 16 1.16 18.0 0 16
+ 5.6e-05 18 0 ack 40 ------- 16 18.0 1.16 0 48
- 5.6e-05 18 0 ack 40 ------- 16 18.0 1.16 0 48
r 5.6e-05 0 19 tcp 40 ------- 17 1.17 19.0 0 17
+ 5.6e-05 19 0 ack 40 ------- 17 19.0 1.17 0 49
- 5.6e-05 19 0 ack 40 ------- 17 19.0 1.17 0 49
r 5.6e-05 0 20 tcp 40 ------- 18 1.18 20.0 0 18
+ 5.6e-05 20 0 ack 40 ------- 18 20.0 1.18 0 50
- 5.6e-05 20 0 ack 40 ------- 18 20.0 1.18 0 50
r 5.7e-05 0 21 tcp 40 ------- 19 1.19 21.0 0 19
+ 5.7e-05 21 0 ack 40 ------- 19 21.0 1.19 0 51
- 5.7e-05 21 0 ack 40 ------- 19 21.0 1.19 0 51
r 5.7e-05 0 22 tcp 40 ------- 20 1.20 22.0 0 20
+ 5.7e-05 22 0 ack 40 ------- 20 22.0 1.20 0 52
- 5.7e-05 22 0 ack 40 ------- 20 22.0 1.20 0 52
r 5.7e-05 0 23 tcp 40 ------- 21 1.21 23.0 0 21
+ 5.7e-05 23 0 ack 40 ------- 21 23.0 1.21 0 53
- 5.7e-05 23 0 ack 40 ------- 21 23.0 1.21 0 53
r 5.8e-05 0 24 tcp 40 ------- 22 1.22 24.0 0 22
+ 5.8e-05 24 0 ack 40 ------- 22 24.0 1.22 0 54
- 5.8e-05 24 0 ack 40 ------- 22 24.0 1.22 0 54
r 5.8e-05 0 25 tcp 40 ------- 23 1.23 25.0 0 23
+ 5.8e-05 25 0 ack 40 ------- 23 25.0 1.23 0 55
- 5.8e-05 25 0 ack 40 ------- 23 25.0 1.23 0 55
r 5.8e-05 0 26 tcp 40 ------- 24 1.24 26.0 0 24
+ 5.8e-05 26 0 ack 40 ------- 24 26.0 1.24 0 56
- 5.8e-05 26 0 ack 40 ------- 24 26.0 1.24 0 56
r 5.9e-05 0 27 tcp 40 ------- 25 1.25 27.0 0 25
+ 5.9e-05 27 0 ack 40 ------- 25 27.0 1.25 0 57
- 5.9e-05 27 0 ack 40 ------- 25 27.0 1.25 0 57
r 5.9e-05 0 28 tcp 40 ------- 26 1.26 28.0 0 26
+ 5.9e-05 28 0 ack 40 ------- 26 28.0 1.26 0 58
- 5.9e-05 28 0 ack 40 ------- 26 28.0 1.26 0 58
r 5.9e-05 0 29 tcp 40 ------- 27 1.27 29.0 0 27
+ 5.9e-05 29 0 ack 40 ------- 27 29.0 1.27 0 59
- 5.9e-05 29 0 ack 40 ------- 27 29.0 1.27 0 59
r 6e-05 0 30 tcp 40 ------- 28 1.28 30.0 0 28
+ 6e-05 30 0 ack 40 ------- 28 30.0 1.28 0 60
- 6e-05 30 0 ack 40 ------- 28 30.0 1.28 0 60
r 6e-05 0 31 tcp 40 ------- 29 1.29 31.0 0 29
+ 6e-05 31 0 ack 40 ------- 29 31.0 1.29 0 61
- 6e-05 31 0 ack 40 ------- 29 31.0 1.29 0 61
r 6e-05 0 32 tcp 40 ------- 30 1.30 32.0 0 30
+ 6e-05 32 0 ack 40 ------- 30 32.0 1.30 0 62
- 6e-05 32 0 ack 40 ------- 30 32.0 1.30 0 62
r 6.1e-05 0 33 tcp 40 ------- 31 1.31 33.0 0 31
+ 6.1e-05 33 0 ack 40 ------- 31 33.0 1.31 0 63
- 6.1e-05 33 0 ack 40 ------- 31 33.0 1.31 0 63
r 7.6e-05 2 0 ack 40 ------- 0 2.0 1.0 0 32
+ 7.6e-05 0 1 ack 40 ------- 0 2.0 1.0 0 32
- 7.6e-05 0 1 ack 40 ------- 0 2.0 1.0 0 32
r 7.6e-05 3 0 ack 40 ------- 1 3.0 1.1 0 33
+ 7.6e-05 0 1 ack 40 ------- 1 3.0 1.1 0 33
- 7.6e-05 0 1 ack 40 ------- 1 3.0 1.1 0 33
r 7.7e-05 4 0 ack 40 ------- 2 4.0 1.2 0 34
+ 7.7e-05 0 1 ack 40 ------- 2 4.0 1.2 0 34
- 7.7e-05 0 1 ack 40 ------- 2 4.0 1.2 0 34
r 7.7e-05 5 0 ack 40 ------- 3 5.0 1.3 0 35
+ 7.7e-05 0 1 ack 40 ------- 3 5.0 1.3 0 35
- 7.7e-05 0 1 ack 40 ------- 3 5.0 1.3 0 35
r 7.7e-05 6 0 ack 40 ------- 4 6.0 1.4 0 36
+ 7.7e-05 0 1 ack 40 ------- 4 6.0 1.4 0 36
- 7.7e-05 0 1 ack 40 ------- 4 6.0 1.4 0 36
r 7.8e-05 7 0 ack 40 ------- 5 7.0 1.5 0 37
+ 7.8e-05 0 1 ack 40 ------- 5 7.0 1.5 0 37
- 7.8e-05 0 1 ack 40 ------- 5 7.0 1.5 0 37
r 7.8e-05 8 0 ack 40 ------- 6 8.0 1.6 0 38
+ 7.8e-05 0 1 ack 40 ------- 6 8.0 1.6 0 38
- 7.8e-05 0 1 ack 40 ------- 6 8.0 1.6 0 38
r 7.8e-05 9 0 ack 40 ------- 7 9.0 1.7 0 39
+ 7.8e-05 0 1 ack 40 ------- 7 9.0 1.7 0 39
- 7.8e-05 0 1 ack 40 ------- 7 9.0 1.7 0 39
r 7.9e-05 10 0 ack 40 ------- 8 10.0 1.8 0 40
+ 7.9e-05 0 1 ack 40 ------- 8 10.0 1.8 0 40
- 7.9e-05 0 1 ack 40 ------- 8 10.0 1.8 0 40
r 7.9e-05 11 0 ack 40 ------- 9 11.0 1.9 0 41
+ 7.9e-05 0 1 ack 40 ------- 9 11.0 1.9 0 41
- 7.9e-05 0 1 ack 40 ------- 9 11.0 1.9 0 41
r 7.9e-05 12 0 ack 40 ------- 10 12.0 1.10 0 42
+ 7.9e-05 0 1 ack 40 ------- 10 12.0 1.10 0 42
- 7.9e-05 0 1 ack 40 ------- 10 12.0 1.10 0 42
r 7.9e-05 13 0 ack 40 ------- 11 13.0 1.11 0 43
+ 7.9e-05 0 1 ack 40 ------- 11 13.0 1.11 0 43
- 7.9e-05 0 1 ack 40 ------- 11 13.0 1.11 0 43
r 8e-05 14 0 ack 40 ------- 12 14.0 1.12 0 44
+ 8e-05 0 1 ack 40 ------- 12 14.0 1.12 0 44
- 8e-05 0 1 ack 40 ------- 12 14.0 1.12 0 44
r 8e-05 15 0 ack 40 ------- 13 15.0 1.13 0 45
+ 8e-05 0 1 ack 40 ------- 13 15.0 1.13 0 45
- 8e-05 0 1 ack 40 ------- 13 15.0 1.13 0 45
r 8e-05 16 0 ack 40 ------- 14 16.0 1.14 0 46
+ 8e-05 0 1 ack 40 ------- 14 16.0 1.14 0 46
- 8e-05 0 1 ack 40 ------- 14 16.0 1.14 0 46
r 8.1e-05 17 0 ack 40 ------- 15 17.0 1.15 0 47
+ 8.1e-05 0 1 ack 40 ------- 15 17.0 1.15 0 47
- 8.1e-05 0 1 ack 40 ------- 15 17.0 1.15 0 47
r 8.1e-05 18 0 ack 40 ------- 16 18.0 1.16 0 48
+ 8.1e-05 0 1 ack 40 ------- 16 18.0 1.16 0 48
- 8.1e-05 0 1 ack 40 ------- 16 18.0 1.16 0 48
r 8.1e-05 19 0 ack 40 ------- 17 19.0 1.17 0 49
+ 8.1e-05 0 1 ack 40 ------- 17 19.0 1.17 0 49
- 8.1e-05 0 1 ack 40 ------- 17 19.0 1.17 0 49
r 8.2e-05 20 0 ack 40 ------- 18 20.0 1.18 0 50
+ 8.2e-05 0 1 ack 40 ------- 18 20.0 1.18 0 50
- 8.2e-05 0 1 ack 40 ------- 18 20.0 1.18 0 50
r 8.2e-05 21 0 ack 40 ------- 19 21.0 1.19 0 51
+ 8.2e-05 0 1 ack 40 ------- 19 21.0 1.19 0 51
- 8.2e-05 0 1 ack 40 ------- 19 21.0 1.19 0 51
r 8.2e-05 22 0 ack 40 ------- 20 22.0 1.20 0 52
+ 8.2e-05 0 1 ack 40 ------- 20 22.0 1.20 0 52
- 8.2e-05 0 1 ack 40 ------- 20 22.0 1.20 0 52
r 8.3e-05 23 0 ack 40 ------- 21 23.0 1.21 0 53
+ 8.3e-05 0 1 ack 40 ------- 21 23.0 1.21 0 53
- 8.3e-05 0 1 ack 40 ------- 21 23.0 1.21 0 53
r 8.3e-05 24 0 ack 40 ------- 22 24.0 1.22 0 54
+ 8.3e-05 0 1 ack 40 ------- 22 24.0 1.22 0 54
- 8.3e-05 0 1 ack 40 ------- 22 24.0 1.22 0 54
r 8.3e-05 25 0 ack 40 ------- 23 25.0 1.23 0 55
+ 8.3e-05 0 1 ack 40 ------- 23 25.0 1.23 0 55
- 8.3e-05 0 1 ack 40 ------- 23 25.0 1.23 0 55
r 8.4e-05 26 0 ack 40 ------- 24 26.0 1.24 0 56
+ 8.4e-05 0 1 ack 40 ------- 24 26.0 1.24 0 56
- 8.4e-05 0 1 ack 40 ------- 24 26.0 1.24 0 56
r 8.4e-05 27 0 ack 40 ------- 25 27.0 1.25 0 57
+ 8.4e-05 0 1 ack 40 ------- 25 27.0 1.25 0 57
- 8.4e-05 0 1 ack 40 ------- 25 27.0 1.25 0 57
r 8.4e-05 28 0 ack 40 ------- 26 28.0 1.26 0 58
+ 8.4e-05 0 1 ack 40 ------- 26 28.0 1.26 0 58
- 8.4e-05 0 1 ack 40 ------- 26 28.0 1.26 0 58
r 8.5e-05 29 0 ack 40 ------- 27 29.0 1.27 0 59
+ 8.5e-05 0 1 ack 40 ------- 27 29.0 1.27 0 59
- 8.5e-05 0 1 ack 40 ------- 27 29.0 1.27 0 59
r 8.5e-05 30 0 ack 40 ------- 28 30.0 1.28 0 60
+ 8.5e-05 0 1 ack 40 ------- 28 30.0 1.28 0 60
- 8.5e-05 0 1 ack 40 ------- 28 30.0 1.28 0 60
r 8.5e-05 31 0 ack 40 ------- 29 31.0 1.29 0 61
+ 8.5e-05 0 1 ack 40 ------- 29 31.0 1.29 0 61
- 8.5e-05 0 1 ack 40 ------- 29 31.0 1.29 0 61
r 8.6e-05 32 0 ack 40 ------- 30 32.0 1.30 0 62
+ 8.6e-05 0 1 ack 40 ------- 30 32.0 1.30 0 62
- 8.6e-05 0 1 ack 40 ------- 30 32.0 1.30 0 62
r 8.6e-05 33 0 ack 40 ------- 31 33.0 1.31 0 63
+ 8.6e-05 0 1 ack 40 ------- 31 33.0 1.31 0 63
- 8.6e-05 0 1 ack 40 ------- 31 33.0 1.31 0 63
r 0.000101 0 1 ack 40 ------- 0 2.0 1.0 0 32
+ 0.000101 1 0 tcp 40 ------- 0 1.0 2.0 1 64
- 0.000101 1 0 tcp 40 ------- 0 1.0 2.0 1 64
+ 0.000101 1 0 tcp 140 ------- 0 1.0 2.0 1 65
r 0.000102 0 1 ack 40 ------- 1 3.0 1.1 0 33
+ 0.000102 1 0 tcp 40 ------- 1 1.1 3.0 1 66
+ 0.000102 1 0 tcp 140 ------- 1 1.1 3.0 1 67
- 0.000102 1 0 tcp 140 ------- 0 1.0 2.0 1 65
r 0.000102 0 1 ack 40 ------- 2 4.0 1.2 0 34
+ 0.000102 1 0 tcp 40 ------- 2 1.2 4.0 1 68
+ 0.000102 1 0 tcp 140 ------- 2 1.2 4.0 1 69
r 0.000102 0 1 ack 40 ------- 3 5.0 1.3 0 35
+ 0.000102 1 0 tcp 40 ------- 3 1.3 5.0 1 70
+ 0.000102 1 0 tcp 140 ------- 3 1.3 5.0 1 71
r 0.000103 0 1 ack 40 ------- 4 6.0 1.4 0 36
+ 0.000103 1 0 tcp 40 ------- 4 1.4 6.0 1 72
+ 0.000103 1 0 tcp 140 ------- 4 1.4 6.0 1 73
- 0.000103 1 0 tcp 40 ------- 1 1.1 3.0 1 66
r 0.000103 0 1 ack 40 ------- 5 7.0 1.5 0 37
+ 0.000103 1 0 tcp 40 ------- 5 1.5 7.0 1 74
+ 0.000103 1 0 tcp 140 ------- 5 1.5 7.0 1 75
- 0.000103 1 0 tcp 140 ------- 1 1.1 3.0 1 67
r 0.000103 0 1 ack 40 ------- 6 8.0 1.6 0 38
+ 0.000103 1 0 tcp 40 ------- 6 1.6 8.0 1 76
+ 0.000103 1 0 tcp 140 ------- 6 1.6 8.0 1 77
r 0.000104 0 1 ack 40 ------- 7 9.0 1.7 0 39
+ 0.000104 1 0 tcp 40 ------- 7 1.7 9.0 1 78
+ 0.000104 1 0 tcp 140 ------- 7 1.7 9.0 1 79
r 0.000104 0 1 ack 40 ------- 8 10.0 1.8 0 40
+ 0.000104 1 0 tcp 40 ------- 8 1.8 10.0 1 80
+ 0.000104 1 0 tcp 140 ------- 8 1.8 10.0 1 81
r 0.000104 0 1 ack 40 ------- 9 11.0 1.9 0 41
+ 0.000104 1 0 tcp 40 ------- 9 1.9 11.0 1 82
+ 0.000104 1 0 tcp 140 ------- 9 1.9 11.0 1 83
- 0.000104 1 0 tcp 40 ------- 2 1.2 4.0 1 68
r 0.000104 0 1 ack 40 ------- 10 12.0 1.10 0 42
+ 0.000104 1 0 tcp 40 ------- 10 1.10 12.0 1 84
+ 0.000104 1 0 tcp 140 ------- 10 1.10 12.0 1 85
- 0.000104 1 0 tcp 140 ------- 2 1.2 4.0 1 69
r 0.000105 0 1 ack 40 ------- 11 13.0 1.11 0 43
+ 0.000105 1 0 tcp 40 ------- 11 1.11 13.0 1 86
+ 0.000105 1 0 tcp 140 ------- 11 1.11 13.0 1 87
r 0.000105 0 1 ack 40 ------- 12 14.0 1.12 0 44
+ 0.000105 1 0 tcp 40 ------- 12 1.12 14.0 1 88
+ 0.000105 1 0 tcp 140 ------- 12 1.12 14.0 1 89
r 0.000105 0 1 ack 40 ------- 13 15.0 1.13 0 45
+ 0.000105 1 0 tcp 40 ------- 13 1.13 15.0 1 90
+ 0.000105 1 0 tcp 140 ------- 13 1.13 15.0 1 91
- 0.000106 1 0 tcp 40 ------- 3 1.3 5.0 1 70
r 0.000106 0 1 ack 40 ------- 14 16.0 1.14 0 46
+ 0.000106 1 0 tcp 40 ------- 14 1.14 16.0 1 92
+ 0.000106 1 0 tcp 140 ------- 14 1.14 16.0 1 93
- 0.000106 1 0 tcp 140 ------- 3 1.3 5.0 1 71
r 0.000106 0 1 ack 40 ------- 15 17.0 1.15 0 47
+ 0.000106 1 0 tcp 40 ------- 15 1.15 17.0 1 94
+ 0.000106 1 0 tcp 140 ------- 15 1.15 17.0 1 95
r 0.000106 0 1 ack 40 ------- 16 18.0 1.16 0 48
+ 0.000106 1 0 tcp 40 ------- 16 1.16 18.0 1 96
+ 0.000106 1 0 tcp 140 ------- 16 1.16 18.0 1 97
r 0.000107 0 1 ack 40 ------- 17 19.0 1.17 0 49
+ 0.000107 1 0 tcp 40 ------- 17 1.17 19.0 1 98
+ 0.000107 1 0 tcp 140 ------- 17 1.17 19.0 1 99
r 0.000107 0 1 ack 40 ------- 18 20.0 1.18 0 50
+ 0.000107 1 0 tcp 40 ------- 18 1.18 20.0 1 100
+ 0.000107 1 0 tcp 140 ------- 18 1.18 20.0 1 101
- 0.000107 1 0 tcp 40 ------- 4 1.4 6.0 1 72
r 0.000107 0 1 ack 40 ------- 19 21.0 1.19 0 51
+ 0.000107 1 0 tcp 40 ------- 19 1.19 21.0 1 102
+ 0.000107 1 0 tcp 140 ------- 19 1.19 21.0 1 103
- 0.000107 1 0 tcp 140 ------- 4 1.4 6.0 1 73
r 0.000108 0 1 ack 40 ------- 20 22.0 1.20 0 52
+ 0.000108 1 0 tcp 40 ------- 20 1.20 22.0 1 104
+ 0.000108 1 0 tcp 140 ------- 20 1.20 22.0 1 105
r 0.000108 0 1 ack 40 ------- 21 23.0 1.21 0 53
+ 0.000108 1 0 tcp 40 ------- 21 1.21 23.0 1 106
+ 0.000108 1 0 tcp 140 ------- 21 1.21 23.0 1 107
r 0.000108 0 1 ack 40 ------- 22 24.0 1.22 0 54
+ 0.000108 1 0 tcp 40 ------- 22 1.22 24.0 1 108
+ 0.000108 1 0 tcp 140 ------- 22 1.22 24.0 1 109
- 0.000108 1 0 tcp 40 ------- 5 1.5 7.0 1 74
r 0.000109 0 1 ack 40 ------- 23 25.0 1.23 0 55
+ 0.000109 1 0 tcp 40 ------- 23 1.23 25.0 1 110
+ 0.000109 1 0 tcp 140 ------- 23 1.23 25.0 1 111
- 0.000109 1 0 tcp 140 ------- 5 1.5 7.0 1 75
r 0.000109 0 1 ack 40 ------- 24 26.0 1.24 0 56
+ 0.000109 1 0 tcp 40 ------- 24 1.24 26.0 1 112
+ 0.000109 1 0 tcp 140 ------- 24 1.24 26.0 1 113
r 0.000109 0 1 ack 40 ------- 25 27.0 1.25 0 57
+ 0.000109 1 0 tcp 40 ------- 25 1.25 27.0 1 114
+ 0.000109 1 0 tcp 140 ------- 25 1.25 27.0 1 115
r 0.00011 0 1 ack 40 ------- 26 28.0 1.26 0 58
+ 0.00011 1 0 tcp 40 ------- 26 1.26 28.0 1 116
+ 0.00011 1 0 tcp 140 ------- 26 1.26 28.0 1 117
r 0.00011 0 1 ack 40 ------- 27 29.0 1.27 0 59
+ 0.00011 1 0 tcp 40 ------- 27 1.27 29.0 1 118
+ 0.00011 1 0 tcp 140 ------- 27 1.27 29.0 1 119
- 0.00011 1 0 tcp 40 ------- 6 1.6 8.0 1 76
r 0.00011 0 1 ack 40 ------- 28 30.0 1.28 0 60
+ 0.00011 1 0 tcp 40 ------- 28 1.28 30.0 1 120
+ 0.00011 1 0 tcp 140 ------- 28 1.28 30.0 1 121
- 0.00011 1 0 tcp 140 ------- 6 1.6 8.0 1 77
r 0.000111 0 1 ack 40 ------- 29 31.0 1.29 0 61
+ 0.000111 1 0 tcp 40 ------- 29 1.29 31.0 1 122
+ 0.000111 1 0 tcp 140 ------- 29 1.29 31.0 1 123
r 0.000111 0 1 ack 40 ------- 30 32.0 1.30 0 62
+ 0.000111 1 0 tcp 40 ------- 30 1.30 32.0 1 124
+ 0.000111 1 0 tcp 140 ------- 30 1.30 32.0 1 125
r 0.000111 0 1 ack 40 ------- 31 33.0 1.31 0 63
+ 0.000111 1 0 tcp 40 ------- 31 1.31 33.0 1 126
+ 0.000111 1 0 tcp 140 ------- 31 1.31 33.0 1 127
- 0.000111 1 0 tcp 40 ------- 7 1.7 9.0 1 78
- 0.000112 1 0 tcp 140 ------- 7 1.7 9.0 1 79
- 0.000113 1 0 tcp 40 ------- 8 1.8 10.0 1 80
- 0.000113 1 0 tcp 140 ------- 8 1.8 10.0 1 81
- 0.000114 1 0 tcp 40 ------- 9 1.9 11.0 1 82
- 0.000115 1 0 tcp 140 ------- 9 1.9 11.0 1 83
- 0.000116 1 0 tcp 40 ------- 10 1.10 12.0 1 84
- 0.000116 1 0 tcp 140 ------- 10 1.10 12.0 1 85
- 0.000117 1 0 tcp 40 ------- 11 1.11 13.0 1 86
- 0.000117 1 0 tcp 140 ------- 11 1.11 13.0 1 87
- 0.000119 1 0 tcp 40 ------- 12 1.12 14.0 1 88
- 0.000119 1 0 tcp 140 ------- 12 1.12 14.0 1 89
- 0.00012 1 0 tcp 40 ------- 13 1.13 15.0 1 90
- 0.00012 1 0 tcp 140 ------- 13 1.13 15.0 1 91
- 0.000121 1 0 tcp 40 ------- 14 1.14 16.0 1 92
- 0.000122 1 0 tcp 140 ------- 14 1.14 16.0 1 93
- 0.000123 1 0 tcp 40 ------- 15 1.15 17.0 1 94
- 0.000123 1 0 tcp 140 ------- 15 1.15 17.0 1 95
- 0.000124 1 0 tcp 40 ------- 16 1.16 18.0 1 96
- 0.000125 1 0 tcp 140 ------- 16 1.16 18.0 1 97
- 0.000126 1 0 tcp 40 ------- 17 1.17 19.0 1 98
- 0.000126 1 0 tcp 140 ------- 17 1.17 19.0 1 99
r 0.000127 1 0 tcp 40 ------- 0 1.0 2.0 1 64
+ 0.000127 0 2 tcp 40 ------- 0 1.0 2.0 1 64
- 0.000127 0 2 tcp 40 ------- 0 1.0 2.0 1 64
- 0.000127 1 0 tcp 40 ------- 18 1.18 20.0 1 100
- 0.000128 1 0 tcp 140 ------- 18 1.18 20.0 1 101
r 0.000128 1 0 tcp 140 ------- 0 1.0 2.0 1 65
+ 0.000128 0 2 tcp 140 ------- 0 1.0 2.0 1 65
- 0.000128 0 2 tcp 140 ------- 0 1.0 2.0 1 65
r 0.000128 1 0 tcp 40 ------- 1 1.1 3.0 1 66
+ 0.000128 0 3 tcp 40 ------- 1 1.1 3.0 1 66
- 0.000128 0 3 tcp 40 ------- 1 1.1 3.0 1 66
- 0.000129 1 0 tcp 40 ------- 19 1.19 21.0 1 102
- 0.000129 1 0 tcp 140 ------- 19 1.19 21.0 1 103
r 0.000129 1 0 tcp 140 ------- 1 1.1 3.0 1 67
+ 0.000129 0 3 tcp 140 ------- 1 1.1 3.0 1 67
- 0.000129 0 3 tcp 140 ------- 1 1.1 3.0 1 67
r 0.000129 1 0 tcp 40 ------- 2 1.2 4.0 1 68
+ 0.000129 0 4 tcp 40 ------- 2 1.2 4.0 1 68
- 0.000129 0 4 tcp 40 ------- 2 1.2 4.0 1 68
- 0.00013 1 0 tcp 40 ------- 20 1.20 22.0 1 104
- 0.00013 1 0 tcp 140 ------- 20 1.20 22.0 1 105
r 0.000131 1 0 tcp 140 ------- 2 1.2 4.0 1 69
+ 0.000131 0 4 tcp 140 ------- 2 1.2 4.0 1 69
- 0.000131 0 4 tcp 140 ------- 2 1.2 4.0 1 69
r 0.000131 1 0 tcp 40 ------- 3 1.3 5.0 1 70
+ 0.000131 0 5 tcp 40 ------- 3 1.3 5.0 1 70
- 0.000131 0 5 tcp 40 ------- 3 1.3 5.0 1 70
- 0.000132 1 0 tcp 40 ------- 21 1.21 23.0 1 106
- 0.000132 1 0 tcp 140 ------- 21 1.21 23.0 1 107
r 0.000132 1 0 tcp 140 ------- 3 1.3 5.0 1 71
+ 0.000132 0 5 tcp 140 ------- 3 1.3 5.0 1 71
- 0.000132 0 5 tcp 140 ------- 3 1.3 5.0 1 71
r 0.000132 1 0 tcp 40 ------- 4 1.4 6.0 1 72
+ 0.000132 0 6 tcp 40 ------- 4 1.4 6.0 1 72
- 0.000132 0 6 tcp 40 ------- 4 1.4 6.0 1 72
- 0.000133 1 0 tcp 40 ------- 22 1.22 24.0 1 108
- 0.000133 1 0 tcp 140 ------- 22 1.22 24.0 1 109
r 0.000133 1 0 tcp 140 ------- 4 1.4 6.0 1 73
+ 0.000133 0 6 tcp 140 ------- 4 1.4 6.0 1 73
- 0.000133 0 6 tcp 140 ------- 4 1.4 6.0 1 73
r 0.000134 1 0 tcp 40 ------- 5 1.5 7.0 1 74
+ 0.000134 0 7 tcp 40 ------- 5 1.5 7.0 1 74
- 0.000134 0 7 tcp 40 ------- 5 1.5 7.0 1 74
- 0.000134 1 0 tcp 40 ------- 23 1.23 25.0 1 110
- 0.000135 1 0 tcp 140 ------- 23 1.23 25.0 1 111
r 0.000135 1 0 tcp 140 ------- 5 1.5 7.0 1 75
+ 0.000135 0 7 tcp 140 ------- 5 1.5 7.0 1 75
- 0.000135 0 7 tcp 140 ------- 5 1.5 7.0 1 75
r 0.000135 1 0 tcp 40 ------- 6 1.6 8.0 1 76
+ 0.000135 0 8 tcp 40 ------- 6 1.6 8.0 1 76
- 0.000135 0 8 tcp 40 ------- 6 1.6 8.0 1 76
- 0.000136 1 0 tcp 40 ------- 24 1.24 26.0 1 112
- 0.000136 1 0 tcp 140 ------- 24 1.24 26.0 1 113
r 0.000136 1 0 tcp 140 ------- 6 1.6 8.0 1 77
+ 0.000136 0 8 tcp 140 ------- 6 1.6 8.0 1 77
- 0.000136 0 8 tcp 140 ------- 6 1.6 8.0 1 77
r 0.000137 1 0 tcp 40 ------- 7 1.7 9.0 1 78
+ 0.000137 0 9 tcp 40 ------- 7 1.7 9.0 1 78
- 0.000137 0 9 tcp 40 ------- 7 1.7 9.0 1 78
- 0.000137 1 0 tcp 40 ------- 25 1.25 27.0 1 114
- 0.000138 1 0 tcp 140 ------- 25 1.25 27.0 1 115
r 0.000138 1 0 tcp 140 ------- 7 1.7 9.0 1 79
+ 0.000138 0 9 tcp 140 ------- 7 1.7 9.0 1 79
- 0.000138 0 9 tcp 140 ------- 7 1.7 9.0 1 79
r 0.000138 1 0 tcp 40 ------- 8 1.8 10.0 1 80
+ 0.000138 0 10 tcp 40 ------- 8 1.8 10.0 1 80
- 0.000138 0 10 tcp 40 ------- 8 1.8 10.0 1 80
- 0.000139 1 0 tcp 40 ------- 26 1.26 28.0 1 116
- 0.000139 1 0 tcp 140 ------- 26 1.26 28.0 1 117
r 0.000139 1 0 tcp 140 ------- 8 1.8 10.0 1 81
+ 0.000139 0 10 tcp 140 ------- 8 1.8 10.0 1 81
- 0.000139 0 10 tcp 140 ------- 8 1.8 10.0 1 81
r 0.00014 1 0 tcp 40 ------- 9 1.9 11.0 1 82
+ 0.00014 0 11 tcp 40 ------- 9 1.9 11.0 1 82
- 0.00014 0 11 tcp 40 ------- 9 1.9 11.0 1 82
- 0.00014 1 0 tcp 40 ------- 27 1.27 29.0 1 118
- 0.00014 1 0 tcp 140 ------- 27 1.27 29.0 1 119
r 0.000141 1 0 tcp 140 ------- 9 1.9 11.0 1 83
+ 0.000141 0 11 tcp 140 ------- 9 1.9 11.0 1 83
- 0.000141 0 11 tcp 140 ------- 9 1.9 11.0 1 83
r 0.000141 1 0 tcp 40 ------- 10 1.10 12.0 1 84
+ 0.000141 0 12 tcp 40 ------- 10 1.10 12.0 1 84
- 0.000141 0 12 tcp 40 ------- 10 1.10 12.0 1 84
- 0.000142 1 0 tcp 40 ------- 28 1.28 30.0 1 120
- 0.000142 1 0 tcp 140 ------- 28 1.28 30.0 1 121
r 0.000142 1 0 tcp 140 ------- 10 1.10 12.0 1 85
+ 0.000142 0 12 tcp 140 ------- 10 1.10 12.0 1 85
- 0.000142 0 12 tcp 140 ------- 10 1.10 12.0 1 85
r 0.000142 1 0 tcp 40 ------- 11 1.11 13.0 1 86
+ 0.000142 0 13 tcp 40 ------- 11 1.11 13.0 1 86
- 0.000142 0 13 tcp 40 ------- 11 1.11 13.0 1 86
- 0.000143 1 0 tcp 40 ------- 29 1.29 31.0 1 122
- 0.000143 1 0 tcp 140 ------- 29 1.29 31.0 1 123
r 0.000144 1 0 tcp 140 ------- 11 1.11 13.0 1 87
+ 0.000144 0 13 tcp 140 ------- 11 1.11 13.0 1 87
- 0.000144 0 13 tcp 140 ------- 11 1.11 13.0 1 87
r 0.000144 1 0 tcp 40 ------- 12 1.12 14.0 1 88
+ 0.000144 0 14 tcp 40 ------- 12 1.12 14.0 1 88
- 0.000144 0 14 tcp 40 ------- 12 1.12 14.0 1 88
- 0.000144 1 0 tcp 40 ------- 30 1.30 32.0 1 124
- 0.000145 1 0 tcp 140 ------- 30 1.30 32.0 1 125
r 0.000145 1 0 tcp 140 ------- 12 1.12 14.0 1 89
+ 0.000145 0 14 tcp 140 ------- 12 1.12 14.0 1 89
- 0.000145 0 14 tcp 140 ------- 12 1.12 14.0 1 89
r 0.000145 1 0 tcp 40 ------- 13 1.13 15.0 1 90
+ 0.000145 0 15 tcp 40 ------- 13 1.13 15.0 1 90
- 0.000145 0 15 tcp 40 ------- 13 1.13 15.0 1 90
- 0.000146 1 0 tcp 40 ------- 31 1.31 33.0 1 126
- 0.000146 1 0 tcp 140 ------- 31 1.31 33.0 1 127
r 0.000146 1 0 tcp 140 ------- 13 1.13 15.0 1 91
+ 0.000146 0 15 tcp 140 ------- 13 1.13 15.0 1 91
- 0.000146 0 15 tcp 140 ------- 13 1.13 15.0 1 91
r 0.000147 1 0 tcp 40 ------- 14 1.14 16.0 1 92
+ 0.000147 0 16 tcp 40 ------- 14 1.14 16.0 1 92
- 0.000147 0 16 tcp 40 ------- 14 1.14 16.0 1 92
r 0.000148 1 0 tcp 140 ------- 14 1.14 16.0 1 93
+ 0.000148 0 16 tcp 140 ------- 14 1.14 16.0 1 93
- 0.000148 0 16 tcp 140 ------- 14 1.14 16.0 1 93
r 0.000148 1 0 tcp 40 ------- 15 1.15 17.0 1 94
+ 0.000148 0 17 tcp 40 ------- 15 1.15 17.0 1 94
- 0.000148 0 17 tcp 40 ------- 15 1.15 17.0 1 94
r 0.000149 1 0 tcp 140 ------- 15 1.15 17.0 1 95
+ 0.000149 0 17 tcp 140 ------- 15 1.15 17.0 1 95
- 0.000149 0 17 tcp 140 ------- 15 1.15 17.0 1 95
r 0.00015 1 0 tcp 40 ------- 16 1.16 18.0 1 96
+ 0.00015 0 18 tcp 40 ------- 16 1.16 18.0 1 96
- 0.00015 0 18 tcp 40 ------- 16 1.16 18.0 1 96